LAMMPS (2 Aug 2023 - Update 1)
OMP_NUM_THREADS environment is not set. Defaulting to 1 thread. (src/comm.cpp:98)
  using 1 OpenMP thread(s) per MPI task
Loaded 1 plugins from /home/rverma7/.conda/envs/deepmd/lib/deepmd_lmp
#13 Butadiene
units           metal
boundary        p p p
atom_style      atomic

neighbor        2.0 bin
neigh_modify    delay 0 every 1 check yes

read_data       conf.lmp
Reading data file ...
  triclinic box = (0 0 0) to (12 12 12) with tilt (0 0 0)
  1 by 1 by 1 MPI processor grid
  reading atoms ...
  8 atoms
  read_data CPU = 0.000 seconds
mass            1 10.8
mass            2 1.0
mass            3 14.0

variable        sysvol          equal vol
variable        sysmass         equal mass(all)/6.0221367e+23
variable        sysdensity      equal v_sysmass/v_sysvol/1.0e-24
variable	out_freq 	equal 100

pair_style      deepmd frozen_model_1.pb frozen_model_2.pb out_file md.out out_freq 10 atomic relative 1.0
Summary of lammps deepmd module ...
  >>> Info of deepmd-kit:
  installed to:       /home/rverma7/.conda/envs/deepmd
  source:             v2.2.10
  source branch:      HEAD
  source commit:      f8a0b3128
  source commit at:   2024-04-06 14:46:23 -0400
  support model ver.: 1.1 
  build variant:      cuda
  build with tf inc:  /home/rverma7/.conda/envs/deepmd/include;/home/rverma7/.conda/envs/deepmd/include
  build with tf lib:  /home/rverma7/.conda/envs/deepmd/lib/libtensorflow_cc.so
  set tf intra_op_parallelism_threads: 0
  set tf inter_op_parallelism_threads: 0
  >>> Info of lammps module:
  use deepmd-kit at:  /home/rverma7/.conda/envs/deepmdpair_coeff	* *

#
velocity        all create 300.0 2345678 rot no dist gaussian
fix             1 all nvt temp 300.0 300.0 0.05
fix             2 all plumed plumedfile plumed.dat outfile PLUMED.log

timestep        0.0005
thermo_style    custom step pe ke etotal v_sysdensity temp press vol
thermo          10

dump            10 all custom 100 traj.dump id type x y z
dump		101 all xyz 20 traj.xyz
dump_modify	101 element B H N

fix		extra all print 20 "$(step), $(ke), $(pe), $(etotal), $(temp), $(press), $(vol)" file logfile screen no

restart	        100000 dump.restart

run             150000

CITE-CITE-CITE-CITE-CITE-CITE-CITE-CITE-CITE-CITE-CITE-CITE-CITE

Your simulation uses code contributions which should be cited:

- USER-DEEPMD package:

@article{Wang_ComputPhysCommun_2018_v228_p178,
  author = {Wang, Han and Zhang, Linfeng and Han, Jiequn and E, Weinan},
  doi = {10.1016/j.cpc.2018.03.016},
  url = {https://doi.org/10.1016/j.cpc.2018.03.016},
  year = 2018,
  month = {jul},
  publisher = {Elsevier {BV}},
  volume = 228,
  journal = {Comput. Phys. Commun.},
  title = {{DeePMD-kit: A deep learning package for many-body potential energy representation and molecular dynamics}},
  pages = {178--184}
}
@misc{Zeng_JChemPhys_2023_v159_p054801,
  title  = {{DeePMD-kit v2: A software package for deep potential models}},
  author =   {Jinzhe Zeng and Duo Zhang and Denghui Lu and Pinghui Mo and Zeyu Li
         and Yixiao Chen and Mari{\'a}n Rynik and Li'ang Huang and Ziyao Li and 
         Shaochen Shi and Yingze Wang and Haotian Ye and Ping Tuo and Jiabin
         Yang and Ye Ding and Yifan Li and Davide Tisi and Qiyu Zeng and Han 
         Bao and Yu Xia and Jiameng Huang and Koki Muraoka and Yibo Wang and 
         Junhan Chang and Fengbo Yuan and Sigbj{\o}rn L{\o}land Bore and Chun
         Cai and Yinnian Lin and Bo Wang and Jiayan Xu and Jia-Xin Zhu and 
         Chenxing Luo and Yuzhi Zhang and Rhys E A Goodall and Wenshuo Liang
         and Anurag Kumar Singh and Sikai Yao and Jingchao Zhang and Renata
         Wentzcovitch and Jiequn Han and Jie Liu and Weile Jia and Darrin M
         York and Weinan E and Roberto Car and Linfeng Zhang and Han Wang},
  journal =  {J. Chem. Phys.},
  volume =   159,
  issue =    5,  
  year =    2023,
  pages  =   054801,
  doi =      {10.1063/5.0155600},
}

CITE-CITE-CITE-CITE-CITE-CITE-CITE-CITE-CITE-CITE-CITE-CITE-CITE

Generated 0 of 3 mixed pair_coeff terms from geometric mixing rule
Neighbor list info ...
  update: every = 1 steps, delay = 0 steps, check = yes
  max neighbors/atom: 2000, page size: 100000
  master list distance cutoff = 8
  ghost atom cutoff = 8
  binsize = 4, bins = 3 3 3
  1 neighbor lists, perpetual/occasional/extra = 1 0 0
  (1) pair deepmd, perpetual
      attributes: full, newton on
      pair build: full/bin/atomonly
      stencil: full/bin/3d
      bin: standard
Per MPI rank memory allocation (min/avg/max) = 3.063 | 3.063 | 3.063 Mbytes
   Step         PotEng         KinEng         TotEng      v_sysdensity       Temp          Press          Volume    
         0  -36.562636      0.2714463     -36.29119       0.029597591    300           -369.86598      1728         
        10  -36.514193      0.22391032    -36.290283      0.029597591    247.46366     -729.13496      1728         
        20  -36.458852      0.17002358    -36.288828      0.029597591    187.90852     -21.557845      1728         
        30  -36.527366      0.24089081    -36.286475      0.029597591    266.23035      289.56935      1728         
        40  -36.545101      0.26254156    -36.282559      0.029597591    290.15855     -1412.4148      1728         
        50  -36.490823      0.2136499     -36.277173      0.029597591    236.12393      1649.2532      1728         
        60  -36.493299      0.22708134    -36.266218      0.029597591    250.96825     -969.8781       1728         
        70  -36.509721      0.25010145    -36.259619      0.029597591    276.40986      746.47925      1728         
        80  -36.478073      0.22687833    -36.251195      0.029597591    250.74388      418.73559      1728         
        90  -36.494117      0.25426805    -36.239848      0.029597591    281.01475      73.69956       1728         
       100  -36.513434      0.28646259    -36.226971      0.029597591    316.59587     -815.53675      1728         
       110  -36.475767      0.26780806    -36.207959      0.029597591    295.97905      1121.5021      1728         
       120  -36.423102      0.23005187    -36.19305       0.029597591    254.25124     -2154.2615      1728         
       130  -36.466624      0.29073285    -36.175892      0.029597591    321.31531      1016.0335      1728         
       140  -36.459715      0.30439476    -36.15532       0.029597591    336.41434     -556.1493       1728         
       150  -36.469803      0.33679642    -36.133006      0.029597591    372.22436     -223.14874      1728         
       160  -36.48072       0.38041414    -36.100306      0.029597591    420.43027      399.60674      1728         
       170  -36.426087      0.34877281    -36.077314      0.029597591    385.46055      690.88041      1728         
       180  -36.435856      0.37918323    -36.056673      0.029597591    419.06987     -753.6399       1728         
       190  -36.486419      0.4539199     -36.0325        0.029597591    501.66817      1557.4378      1728         
       200  -36.405949      0.39409893    -36.01185       0.029597591    435.55457     -975.05889      1728         
       210  -36.47826       0.48783015    -35.99043       0.029597591    539.14546     -95.347437      1728         
       220  -36.406223      0.4285348     -35.977688      0.029597591    473.61278      250.38353      1728         
       230  -36.30113       0.33068434    -35.970446      0.029597591    365.46934     -1417.3152      1728         
       240  -36.475871      0.50930711    -35.966564      0.029597591    562.88161     -87.405514      1728         
       250  -36.390663      0.42727668    -35.963386      0.029597591    472.22232      86.906282      1728         
       260  -36.368806      0.40722266    -35.961583      0.029597591    450.05881     -526.58417      1728         
       270  -36.496801      0.53147029    -35.96533       0.029597591    587.37616      314.20541      1728         
       280  -36.393375      0.4150103     -35.978365      0.029597591    458.66562      607.7254       1728         
       290  -36.306379      0.31858605    -35.987793      0.029597591    352.09842     -599.46725      1728         
       300  -36.493867      0.48763765    -36.006229      0.029597591    538.93272      1788.2658      1728         
       310  -36.362802      0.34475543    -36.018047      0.029597591    381.02058     -1183.9024      1728         
       320  -36.422546      0.38764652    -36.0349        0.029597591    428.42343      769.74385      1728         
       330  -36.400996      0.34748843    -36.053508      0.029597591    384.04107     -265.35876      1728         
       340  -36.348304      0.27670757    -36.071596      0.029597591    305.8147      -621.11061      1728         
       350  -36.368397      0.28625396    -36.082143      0.029597591    316.36529     -817.78707      1728         
       360  -36.442518      0.35186376    -36.090654      0.029597591    388.87665      821.3849       1728         
       370  -36.369013      0.26933807    -36.099675      0.029597591    297.67        -1596.8403      1728         
       380  -36.439425      0.33048917    -36.108936      0.029597591    365.25364      1775.9034      1728         
       390  -36.433748      0.31922453    -36.114524      0.029597591    352.80406     -689.96842      1728         
       400  -36.404439      0.28268373    -36.121756      0.029597591    312.4195       343.81639      1728         
       410  -36.389852      0.26839766    -36.121455      0.029597591    296.63066      861.84387      1728         
       420  -36.474126      0.34625504    -36.127871      0.029597591    382.67794     -29.817572      1728         
       430  -36.426806      0.29563752    -36.131168      0.029597591    326.73591     -602.2915       1728         
       440  -36.402815      0.26706205    -36.135753      0.029597591    295.15456      1449.1427      1728         
       450  -36.414839      0.27403543    -36.140803      0.029597591    302.86147     -1749.7519      1728         
       460  -36.440904      0.30068912    -36.140215      0.029597591    332.3189      -58.318751      1728         
       470  -36.415901      0.27294182    -36.142959      0.029597591    301.65283      95.057017      1728         
       480  -36.431636      0.28500887    -36.146627      0.029597591    314.98923     -1203.6654      1728         
       490  -36.45278       0.30176226    -36.151018      0.029597591    333.50492      744.38726      1728         
       500  -36.506254      0.35225767    -36.153996      0.029597591    389.31199      456.95487      1728         
       510  -36.402284      0.2507055     -36.151579      0.029597591    277.07745     -590.02357      1728         
       520  -36.403863      0.2463768     -36.157486      0.029597591    272.29341      1283.7579      1728         
       530  -36.516173      0.35385172    -36.162321      0.029597591    391.07372      130.94202      1728         
       540  -36.428303      0.26355574    -36.164747      0.029597591    291.27941     -1060.5013      1728         
       550  -36.376967      0.20928071    -36.167686      0.029597591    231.29514      1686.8315      1728         
       560  -36.466384      0.29848302    -36.167901      0.029597591    329.88074     -1326.1452      1728         
       570  -36.452439      0.28104194    -36.171397      0.029597591    310.60501     -310.85473      1728         
       580  -36.369474      0.19546404    -36.17401       0.029597591    216.02509      172.28139      1728         
       590  -36.392557      0.21503731    -36.17752       0.029597591    237.65729     -666.04124      1728         
       600  -36.486798      0.30559355    -36.181204      0.029597591    337.73922     -599.49333      1728         
       610  -36.451354      0.27397076    -36.177384      0.029597591    302.79         1479.6854      1728         
       620  -36.387887      0.20995118    -36.177936      0.029597591    232.03615     -1543.5944      1728         
       630  -36.469518      0.28743377    -36.182084      0.029597591    317.6692       1693.5098      1728         
       640  -36.452474      0.26691622    -36.185558      0.029597591    294.99339      62.951865      1728         
       650  -36.38868       0.20144038    -36.18724       0.029597591    222.63008     -61.098438      1728         
       660  -36.437818      0.25439995    -36.183418      0.029597591    281.16052      308.20242      1728         
       670  -36.449716      0.26517986    -36.184536      0.029597591    293.07438      478.46675      1728         
       680  -36.425148      0.2398336     -36.185314      0.029597591    265.06192     -1585.3367      1728         
       690  -36.405826      0.22045543    -36.185371      0.029597591    243.64535      1271.7818      1728         
       700  -36.386618      0.19922181    -36.187396      0.029597591    220.17814     -1415.6973      1728         
       710  -36.458285      0.2762744     -36.18201       0.029597591    305.33596     -105.65577      1728         
       720  -36.427634      0.24661284    -36.181022      0.029597591    272.55428      406.97891      1728         
       730  -36.402168      0.2251421     -36.177025      0.029597591    248.82501     -541.08769      1728         
       740  -36.516298      0.34226672    -36.174031      0.029597591    378.27008     -113.86026      1728         
       750  -36.437769      0.26805295    -36.169716      0.029597591    296.24969      1131.7379      1728         
       760  -36.374964      0.21253684    -36.162427      0.029597591    234.89379     -542.89808      1728         
       770  -36.444522      0.28629998    -36.158222      0.029597591    316.41615      1016.8575      1728         
       780  -36.455892      0.30444414    -36.151447      0.029597591    336.4689       372.36912      1728         
       790  -36.432241      0.28952061    -36.142721      0.029597591    319.97556     -973.2753       1728         
       800  -36.425042      0.29198777    -36.133054      0.029597591    322.70224      784.82591      1728         
       810  -36.32168       0.2013774     -36.120302      0.029597591    222.56048     -886.69001      1728         
       820  -36.407473      0.29446778    -36.113005      0.029597591    325.44313     -538.22266      1728         
       830  -36.391129      0.29129315    -36.099835      0.029597591    321.93455      276.20434      1728         
       840  -36.318219      0.22930205    -36.088917      0.029597591    253.42255     -188.65287      1728         
       850  -36.394598      0.31882698    -36.075771      0.029597591    352.3647      -512.32648      1728         
       860  -36.438275      0.38499854    -36.053276      0.029597591    425.4969       844.19342      1728         
       870  -36.28221       0.24593129    -36.036278      0.029597591    271.80103     -1563.6706      1728         
       880  -36.364585      0.34193463    -36.02265       0.029597591    377.90306      1545.6657      1728         
       890  -36.381164      0.37369083    -36.007473      0.029597591    412.99972      127.50604      1728         
       900  -36.291078      0.29506519    -35.996013      0.029597591    326.10338      493.21249      1728         
       910  -36.332272      0.35348894    -35.978784      0.029597591    390.67278      594.19556      1728         
       920  -36.350528      0.38145176    -35.969076      0.029597591    421.57703      422.3359       1728         
       930  -36.270007      0.30682903    -35.963178      0.029597591    339.10467     -1757.5481      1728         
       940  -36.31175       0.35394177    -35.957808      0.029597591    391.17324      1471.7675      1728         
       950  -36.304491      0.3487511     -35.95574       0.029597591    385.43656     -1450.6542      1728         
       960  -36.281288      0.32712114    -35.954167      0.029597591    361.53132      614.69184      1728         
       970  -36.295107      0.3353125     -35.959795      0.029597591    370.58434      325.90308      1728         
       980  -36.283337      0.31686694    -35.96647       0.029597591    350.19847     -968.59768      1728         
       990  -36.304409      0.33000548    -35.974404      0.029597591    364.71907     -522.62964      1728         
      1000  -36.401221      0.41451878    -35.986702      0.029597591    458.12241      765.80738      1728         
      1010  -36.336088      0.33585678    -36.000231      0.029597591    371.18588     -1209.2407      1728         
      1020  -36.335787      0.31368964    -36.022097      0.029597591    346.68695      1737.8926      1728         
      1030  -36.358586      0.31437815    -36.044208      0.029597591    347.44789      593.54313      1728         
      1040  -36.345706      0.2761845     -36.069521      0.029597591    305.23661     -490.52429      1728         
      1050  -36.399844      0.30214152    -36.097703      0.029597591    333.92407      1110.7466      1728         
      1060  -36.429966      0.30962896    -36.120337      0.029597591    342.19912     -750.1668       1728         
      1070  -36.37039       0.22832495    -36.142065      0.029597591    252.34266     -431.64748      1728         
      1080  -36.353737      0.19224911    -36.161488      0.029597591    212.47198      930.35971      1728         
      1090  -36.393013      0.212052      -36.180961      0.029597591    234.35795     -744.36255      1728         
      1100  -36.39967       0.20672749    -36.192942      0.029597591    228.47335     -674.4775       1728         
      1110  -36.379977      0.18100536    -36.198972      0.029597591    200.04548      866.49443      1728         
      1120  -36.384981      0.17675403    -36.208227      0.029597591    195.34696     -1661.868       1728         
      1130  -36.433493      0.21800382    -36.215489      0.029597591    240.93585      711.04484      1728         
      1140  -36.421114      0.20204694    -36.219067      0.029597591    223.30045      61.726517      1728         
      1150  -36.411678      0.19047099    -36.221207      0.029597591    210.50682     -211.106        1728         
      1160  -36.429254      0.20887339    -36.220381      0.029597591    230.84498      615.66522      1728         
      1170  -36.410488      0.18688664    -36.223602      0.029597591    206.54542      1183.951       1728         
      1180  -36.400409      0.17473936    -36.22567       0.029597591    193.12036     -948.5621       1728         
      1190  -36.435723      0.2125093     -36.223213      0.029597591    234.86335      1670.1846      1728         
      1200  -36.410396      0.18879451    -36.221601      0.029597591    208.65398     -961.26655      1728         
      1210  -36.434965      0.22205407    -36.212911      0.029597591    245.41215     -28.983991      1728         
      1220  -36.370596      0.16141956    -36.209177      0.029597591    178.39944      29.799695      1728         
      1230  -36.345343      0.13837694    -36.206966      0.029597591    152.93294     -384.47276      1728         
      1240  -36.406657      0.20261128    -36.204045      0.029597591    223.92416     -823.29011      1728         
      1250  -36.368015      0.1692441     -36.198771      0.029597591    187.04705      1067.0736      1728         
      1260  -36.33058       0.14188805    -36.188692      0.029597591    156.81339     -1282.163       1728         
      1270  -36.455971      0.27574445    -36.180227      0.029597591    304.75027      641.35982      1728         
      1280  -36.429477      0.26125143    -36.168225      0.029597591    288.73272     -507.91491      1728         
      1290  -36.358131      0.2008177     -36.157313      0.029597591    221.94191     -239.9205       1728         
      1300  -36.407075      0.260714      -36.146361      0.029597591    288.13875      817.86781      1728         
      1310  -36.367486      0.23380273    -36.133683      0.029597591    258.39666      762.77495      1728         
      1320  -36.39965       0.27365869    -36.125991      0.029597591    302.44511     -51.117908      1728         
      1330  -36.400725      0.28804887    -36.112676      0.029597591    318.34901      1189.6724      1728         
      1340  -36.398412      0.29761091    -36.100801      0.029597591    328.91688     -666.74038      1728         
      1350  -36.381189      0.28983415    -36.091355      0.029597591    320.32208     -665.01454      1728         
      1360  -36.348791      0.27429256    -36.074499      0.029597591    303.14565      719.25299      1728         
      1370  -36.302227      0.2361642     -36.066063      0.029597591    261.00653     -1058.5835      1728         
      1380  -36.380455      0.31811787    -36.062337      0.029597591    351.58099      307.17063      1728         
      1390  -36.355394      0.29914468    -36.056249      0.029597591    330.612       -302.13612      1728         
      1400  -36.263057      0.21184472    -36.051212      0.029597591    234.12886     -735.90613      1728         
      1410  -36.283245      0.24555127    -36.037694      0.029597591    271.38105     -69.440368      1728         
      1420  -36.408565      0.37766247    -36.030903      0.029597591    417.38915      241.84541      1728         
      1430  -36.325582      0.30207238    -36.02351       0.029597591    333.84766     -1064.3808      1728         
      1440  -36.307847      0.2896329     -36.018214      0.029597591    320.09966      2239.1019      1728         
      1450  -36.304703      0.28790964    -36.016793      0.029597591    318.19513     -445.39191      1728         
      1460  -36.302966      0.28709541    -36.01587       0.029597591    317.29526      964.61138      1728         
      1470  -36.318259      0.30264882    -36.015611      0.029597591    334.48474      456.15247      1728         
      1480  -36.361269      0.34433769    -36.016932      0.029597591    380.5589      -246.12538      1728         
      1490  -36.347781      0.32910693    -36.018674      0.029597591    363.726       -668.28293      1728         
      1500  -36.335723      0.31106641    -36.024657      0.029597591    343.78779      1535.3357      1728         
      1510  -36.229557      0.20436189    -36.025195      0.029597591    225.85891     -2065.5887      1728         
      1520  -36.286961      0.25654662    -36.030414      0.029597591    283.533        857.01094      1728         
      1530  -36.319408      0.28442799    -36.03498       0.029597591    314.34724     -850.94938      1728         
      1540  -36.265463      0.22773885    -36.037724      0.029597591    251.69491     -490.67056      1728         
      1550  -36.272669      0.23065691    -36.042012      0.029597591    254.91993      387.22187      1728         
      1560  -36.340568      0.30105176    -36.039516      0.029597591    332.71968      355.39103      1728         
      1570  -36.324092      0.28584679    -36.038245      0.029597591    315.91529     -1445.4771      1728         
      1580  -36.288039      0.24806021    -36.039978      0.029597591    274.1539       1861.974       1728         
      1590  -36.32308       0.28017395    -36.042907      0.029597591    309.64572     -542.11526      1728         
      1600  -36.353501      0.30447445    -36.049027      0.029597591    336.50241      622.12918      1728         
      1610  -36.330302      0.28536923    -36.044933      0.029597591    315.38749      1275.2901      1728         
      1620  -36.344969      0.29765726    -36.047312      0.029597591    328.96812     -483.49937      1728         
      1630  -36.410704      0.35845723    -36.052247      0.029597591    396.16369     -370.64406      1728         
      1640  -36.381968      0.32629526    -36.055673      0.029597591    360.61857      222.98755      1728         
      1650  -36.331549      0.27196478    -36.059584      0.029597591    300.57301     -1371.8978      1728         
      1660  -36.35561       0.29504422    -36.060566      0.029597591    326.0802       352.02143      1728         
      1670  -36.350864      0.28349939    -36.067365      0.029597591    313.32097      439.38281      1728         
      1680  -36.338403      0.26809164    -36.070312      0.029597591    296.29246     -1470.4731      1728         
      1690  -36.393485      0.31813927    -36.075346      0.029597591    351.60464      1041.3611      1728         
      1700  -36.321572      0.23979293    -36.081779      0.029597591    265.01698     -487.33326      1728         
      1710  -36.349881      0.26733759    -36.082544      0.029597591    295.45909      317.94548      1728         
      1720  -36.31896       0.23001423    -36.088945      0.029597591    254.20965      942.94557      1728         
      1730  -36.279911      0.18765237    -36.092259      0.029597591    207.3917       554.50107      1728         
      1740  -36.391824      0.29539283    -36.096431      0.029597591    326.46549     -576.53993      1728         
      1750  -36.378987      0.2774487     -36.101539      0.029597591    306.63379      967.19506      1728         
      1760  -36.273492      0.17336746    -36.100124      0.029597591    191.60415     -1950.0118      1728         
      1770  -36.347355      0.24439       -36.102965      0.029597591    270.09762      776.32029      1728         
      1780  -36.335993      0.22814728    -36.107846      0.029597591    252.14631     -419.69408      1728         
      1790  -36.30559       0.19444685    -36.111143      0.029597591    214.90089     -13.112226      1728         
      1800  -36.418325      0.30427501    -36.11405       0.029597591    336.28198     -351.22562      1728         
      1810  -36.376315      0.26310027    -36.113214      0.029597591    290.77603      482.84639      1728         
      1820  -36.348785      0.23080092    -36.117985      0.029597591    255.07908     -1092.0175      1728         
      1830  -36.389242      0.26471005    -36.124532      0.029597591    292.55515      1993.1         1728         
      1840  -36.315603      0.18414635    -36.131456      0.029597591    203.51688     -553.87217      1728         
      1850  -36.358266      0.22169084    -36.136575      0.029597591    245.01071      1023.9568      1728         
      1860  -36.412804      0.27672569    -36.136079      0.029597591    305.83473      288.84225      1728         
      1870  -36.32694       0.18546868    -36.141471      0.029597591    204.97831     -593.14229      1728         
      1880  -36.328909      0.18387454    -36.145035      0.029597591    203.21648     -614.20891      1728         
      1890  -36.39067       0.24272821    -36.147942      0.029597591    268.26102      658.90453      1728         
      1900  -36.334811      0.18271287    -36.152098      0.029597591    201.93261     -1130.0248      1728         
      1910  -36.341453      0.19083112    -36.150621      0.029597591    210.90483      1132.1352      1728         
      1920  -36.389918      0.23387965    -36.156038      0.029597591    258.48167     -458.03335      1728         
      1930  -36.336693      0.18039338    -36.156299      0.029597591    199.36913     -855.36539      1728         
      1940  -36.355488      0.19763501    -36.157853      0.029597591    218.42443      447.88316      1728         
      1950  -36.408982      0.25197405    -36.157008      0.029597591    278.47944     -816.4817       1728         
      1960  -36.411526      0.26144677    -36.150079      0.029597591    288.94861     -379.5058       1728         
      1970  -36.410846      0.26258174    -36.148264      0.029597591    290.20296      1100.6537      1728         
      1980  -36.377378      0.23348691    -36.143891      0.029597591    258.04762     -107.66935      1728         
      1990  -36.341295      0.19345025    -36.147845      0.029597591    213.79946      614.64864      1728         
      2000  -36.394689      0.24756415    -36.147125      0.029597591    273.60566      1458.6212      1728         
      2010  -36.371671      0.23834709    -36.133324      0.029597591    263.41905     -1343.7078      1728         
      2020  -36.39236       0.26469937    -36.12766       0.029597591    292.54335      949.75647      1728         
      2030  -36.348914      0.23046152    -36.118452      0.029597591    254.70399     -307.73351      1728         
      2040  -36.29876       0.18939281    -36.109367      0.029597591    209.31522     -529.32938      1728         
      2050  -36.300254      0.2008077     -36.099446      0.029597591    221.93085     -4.9339537      1728         
      2060  -36.326474      0.23895665    -36.087517      0.029597591    264.09273     -38.0044        1728         
      2070  -36.270529      0.19427812    -36.076251      0.029597591    214.71442     -1827.5447      1728         
      2080  -36.27718       0.21424995    -36.06293       0.029597591    236.7871       1837.4436      1728         
      2090  -36.285319      0.23735258    -36.047966      0.029597591    262.31992     -1667.5328      1728         
      2100  -36.367597      0.34089294    -36.026704      0.029597591    376.7518       280.58864      1728         
      2110  -36.313464      0.31703811    -35.996426      0.029597591    350.38765      233.38149      1728         
      2120  -36.264026      0.29136652    -35.972659      0.029597591    322.01565      334.52928      1728         
      2130  -36.276641      0.31419209    -35.962449      0.029597591    347.24226      681.44674      1728         
      2140  -36.28413       0.33182783    -35.952302      0.029597591    366.73312      2370.2891      1728         
      2150  -36.215828      0.27914       -35.936688      0.029597591    308.50301     -1551.581       1728         
      2160  -36.341769      0.4229861     -35.918783      0.029597591    467.48041      1441.7299      1728         
      2170  -36.296542      0.39144564    -35.905096      0.029597591    432.62219     -962.60713      1728         
      2180  -36.214398      0.31822761    -35.896171      0.029597591    351.70227     -433.94882      1728         
      2190  -36.14892       0.25102999    -35.89789       0.029597591    277.43607      92.9095        1728         
      2200  -36.219706      0.32026992    -35.899436      0.029597591    353.95942     -515.60636      1728         
      2210  -36.246535      0.35163946    -35.894895      0.029597591    388.62875     -1690.8857      1728         
      2220  -36.233211      0.33346048    -35.89975       0.029597591    368.53751      1327.6474      1728         
      2230  -36.222274      0.31978864    -35.902485      0.029597591    353.42751     -1578.78        1728         
      2240  -36.418706      0.51153111    -35.907175      0.029597591    565.33956      120.51385      1728         
      2250  -36.312424      0.39244182    -35.919982      0.029597591    433.72315      1190.5153      1728         
      2260  -36.194531      0.26431161    -35.93022       0.029597591    292.1148       100.0414       1728         
      2270  -36.318561      0.36355304    -35.955008      0.029597591    401.79553      1584.4018      1728         
      2280  -36.385949      0.40386115    -35.982088      0.029597591    446.34369      608.87266      1728         
      2290  -36.286016      0.28439167    -36.001625      0.029597591    314.3071      -790.5208       1728         
      2300  -36.352413      0.32320033    -36.029213      0.029597591    357.19808      314.26477      1728         
      2310  -36.323697      0.27413687    -36.04956       0.029597591    302.97359      353.49314      1728         
      2320  -36.29254       0.22000515    -36.072535      0.029597591    243.1477      -1544.7045      1728         
      2330  -36.265058      0.17064211    -36.094416      0.029597591    188.59212      725.17869      1728         
      2340  -36.289532      0.1771507     -36.112381      0.029597591    195.78536     -1641.3182      1728         
      2350  -36.337276      0.21101585    -36.12626       0.029597591    233.21281     -3.1902063      1728         
      2360  -36.363922      0.23068597    -36.133236      0.029597591    254.95205      245.92534      1728         
      2370  -36.326554      0.18721531    -36.139339      0.029597591    206.90867     -389.26887      1728         
      2380  -36.432883      0.28456643    -36.148317      0.029597591    314.50025     -179.35249      1728         
      2390  -36.392382      0.24203083    -36.150351      0.029597591    267.49028      1482.9774      1728         
      2400  -36.274205      0.11404083    -36.160164      0.029597591    126.03689     -365.1756       1728         
      2410  -36.360937      0.19708156    -36.163855      0.029597591    217.81276      1877.8186      1728         
      2420  -36.415118      0.2530998     -36.162018      0.029597591    279.72361     -191.35694      1728         
      2430  -36.379244      0.21556051    -36.163684      0.029597591    238.23553     -266.9577       1728         
      2440  -36.350989      0.19019927    -36.16079       0.029597591    210.20651      67.33925       1728         
      2450  -36.321652      0.16271461    -36.158937      0.029597591    179.83072     -21.436872      1728         
      2460  -36.312074      0.15933686    -36.152737      0.029597591    176.09765     -1177.9755      1728         
      2470  -36.335043      0.18289006    -36.152153      0.029597591    202.12844      921.71343      1728         
      2480  -36.286172      0.13520625    -36.150965      0.029597591    149.42873     -1604.711       1728         
      2490  -36.333789      0.18476238    -36.149026      0.029597591    204.19771      537.37724      1728         
      2500  -36.372597      0.22683071    -36.145766      0.029597591    250.69125     -25.167915      1728         
      2510  -36.329006      0.20075875    -36.128248      0.029597591    221.87676     -1037.5339      1728         
      2520  -36.366815      0.24759612    -36.119219      0.029597591    273.641        180.23904      1728         
      2530  -36.413921      0.30517865    -36.108743      0.029597591    337.28068      829.84423      1728         
      2540  -36.304684      0.20296131    -36.101723      0.029597591    224.311       -26.497526      1728         
      2550  -36.290432      0.18928851    -36.101143      0.029597591    209.19995      2140.8983      1728         
      2560  -36.406442      0.31614661    -36.090295      0.029597591    349.40237      102.19334      1728         
      2570  -36.403102      0.32581359    -36.077289      0.029597591    360.08623     -672.12561      1728         
      2580  -36.319539      0.25202631    -36.067512      0.029597591    278.5372       661.90692      1728         
      2590  -36.330023      0.27458525    -36.055438      0.029597591    303.46914     -822.00661      1728         
      2600  -36.310804      0.25663533    -36.054168      0.029597591    283.63104     -421.38322      1728         
      2610  -36.215246      0.17030586    -36.04494       0.029597591    188.2205       111.54585      1728         
      2620  -36.235756      0.19502077    -36.040736      0.029597591    215.53519     -1329.9821      1728         
      2630  -36.305826      0.27050773    -36.035318      0.029597591    298.9627      -422.32018      1728         
      2640  -36.302854      0.27388931    -36.028965      0.029597591    302.69999      732.06453      1728         
      2650  -36.293778      0.28076039    -36.013018      0.029597591    310.29385     -1654.9033      1728         
      2660  -36.379269      0.38205428    -35.997215      0.029597591    422.24294      1399.0562      1728         
      2670  -36.310937      0.3269428     -35.983995      0.029597591    361.33423      320.17741      1728         
      2680  -36.184541      0.19960991    -35.984931      0.029597591    220.60706      1128.6079      1728         
      2690  -36.297694      0.31143158    -35.986262      0.029597591    344.19136      1145.6178      1728         
      2700  -36.380505      0.40512182    -35.975383      0.029597591    447.73697      412.82685      1728         
      2710  -36.289043      0.32295406    -35.966089      0.029597591    356.9259      -1360.3663      1728         
      2720  -36.251163      0.2924268     -35.958736      0.029597591    323.18746      1778.2814      1728         
      2730  -36.20673       0.24153366    -35.965196      0.029597591    266.94082     -1922.6407      1728         
      2740  -36.25238       0.28329806    -35.969082      0.029597591    313.09845     -109.90977      1728         
      2750  -36.16646       0.19547451    -35.970986      0.029597591    216.03667     -648.6211       1728         
      2760  -36.18326       0.21453666    -35.968724      0.029597591    237.10398     -870.46471      1728         
      2770  -36.337901      0.3617913     -35.97611       0.029597591    399.84847     -209.1238       1728         
      2780  -36.293091      0.31405876    -35.979033      0.029597591    347.0949       952.72392      1728         
      2790  -36.253184      0.27372092    -35.979463      0.029597591    302.51388     -1324.0169      1728         
      2800  -36.377119      0.38654568    -35.990573      0.029597591    427.20678      1673.2386      1728         
      2810  -36.219733      0.21494268    -36.00479       0.029597591    237.55271      518.24671      1728         
      2820  -36.268854      0.24298005    -36.025874      0.029597591    268.53935      802.5617       1728         
      2830  -36.366501      0.31984791    -36.046653      0.029597591    353.49302      799.28551      1728         
      2840  -36.33738       0.25862265    -36.078758      0.029597591    285.82741     -273.81729      1728         
      2850  -36.349857      0.25211526    -36.097742      0.029597591    278.63551     -628.52069      1728         
      2860  -36.370592      0.25320699    -36.117385      0.029597591    279.84207      656.98944      1728         
      2870  -36.277471      0.13837544    -36.139096      0.029597591    152.93128     -1185.5339      1728         
      2880  -36.336131      0.18147026    -36.154661      0.029597591    200.55929     -138.78071      1728         
      2890  -36.368977      0.19946312    -36.169514      0.029597591    220.44484     -297.65388      1728         
      2900  -36.319372      0.13800871    -36.181364      0.029597591    152.52598     -546.99336      1728         
      2910  -36.363169      0.17728864    -36.18588       0.029597591    195.93781      358.28738      1728         
      2920  -36.409143      0.22089398    -36.188249      0.029597591    244.13003     -628.09783      1728         
      2930  -36.402744      0.20839001    -36.194354      0.029597591    230.31076     -442.30106      1728         
      2940  -36.375746      0.1788093     -36.196937      0.029597591    197.61842      1016.569       1728         
      2950  -36.348427      0.14769811    -36.200729      0.029597591    163.23461      576.52256      1728         
      2960  -36.344557      0.14232777    -36.20223       0.029597591    157.29937      504.99133      1728         
      2970  -36.413513      0.21069831    -36.202814      0.029597591    232.86186      1243.2045      1728         
      2980  -36.423518      0.22509172    -36.198426      0.029597591    248.76934     -743.14007      1728         
      2990  -36.398478      0.19959667    -36.198881      0.029597591    220.59243     -262.51218      1728         
      3000  -36.398505      0.2069093     -36.191596      0.029597591    228.67428     -6.8906607      1728         
      3010  -36.344364      0.16300272    -36.181361      0.029597591    180.14913     -345.13951      1728         
      3020  -36.313425      0.13476714    -36.178658      0.029597591    148.94342     -70.327369      1728         
      3030  -36.375299      0.19945637    -36.175843      0.029597591    220.43738      141.95696      1728         
      3040  -36.331819      0.16347643    -36.168342      0.029597591    180.67268     -1446.0208      1728         
      3050  -36.282128      0.12201296    -36.160115      0.029597591    134.84762      930.29835      1728         
      3060  -36.326948      0.18211076    -36.144837      0.029597591    201.26716     -671.01417      1728         
      3070  -36.352372      0.22198793    -36.130385      0.029597591    245.33905     -8.9844503      1728         
      3080  -36.264302      0.14998572    -36.114316      0.029597591    165.76286      294.76888      1728         
      3090  -36.34492       0.25143027    -36.09349       0.029597591    277.87846     -264.15274      1728         
      3100  -36.333677      0.25933892    -36.074338      0.029597591    286.61903     -416.11586      1728         
      3110  -36.225114      0.1729919     -36.052122      0.029597591    191.18909      1799.8702      1728         
      3120  -36.234877      0.1940815     -36.040796      0.029597591    214.49711     -713.3254       1728         
      3130  -36.308137      0.28354696    -36.02459       0.029597591    313.37353      1364.6151      1728         
      3140  -36.266227      0.26097669    -36.005251      0.029597591    288.42908      417.8541       1728         
      3150  -36.278695      0.2866404     -35.992054      0.029597591    316.79238     -794.71772      1728         
      3160  -36.262366      0.29245239    -35.969914      0.029597591    323.21573     -405.10901      1728         
      3170  -36.223096      0.26570546    -35.95739       0.029597591    293.65527      615.53806      1728         
      3180  -36.241225      0.29382654    -35.947399      0.029597591    324.73444     -1505.007       1728         
      3190  -36.272352      0.3297188     -35.942633      0.029597591    364.40224      962.73764      1728         
      3200  -36.215209      0.27708076    -35.938128      0.029597591    306.22715     -891.89114      1728         
      3210  -36.292457      0.36245177    -35.930005      0.029597591    400.57842     -375.19813      1728         
      3220  -36.256889      0.33157194    -35.925317      0.029597591    366.45031      164.94474      1728         
      3230  -36.263719      0.342961      -35.920758      0.029597591    379.0374      -678.76752      1728         
      3240  -36.359837      0.44450058    -35.915337      0.029597591    491.25802     -854.05132      1728         
      3250  -36.341064      0.4193048     -35.921759      0.029597591    463.41188      1478.2291      1728         
      3260  -36.183386      0.26866431    -35.914722      0.029597591    296.92536     -114.96343      1728         
      3270  -36.286497      0.35973375    -35.926764      0.029597591    397.57448      1328.9237      1728         
      3280  -36.261305      0.32354031    -35.937764      0.029597591    357.57383      760.51763      1728         
      3290  -36.25634       0.31708624    -35.939253      0.029597591    350.44084     -423.8433       1728         
      3300  -36.366704      0.41628145    -35.950422      0.029597591    460.0705       90.393157      1728         
      3310  -36.282862      0.33480572    -35.948056      0.029597591    370.02425      143.64609      1728         
      3320  -36.1943        0.23337125    -35.960929      0.029597591    257.91979     -438.53809      1728         
      3330  -36.263035      0.2907426     -35.972292      0.029597591    321.32609     -221.45828      1728         
      3340  -36.253113      0.27003788    -35.983075      0.029597591    298.44342     -1020.542       1728         
      3350  -36.207922      0.2182348     -35.989687      0.029597591    241.19112     -1161.2879      1728         
      3360  -36.301898      0.30807125    -35.993827      0.029597591    340.47756      419.72995      1728         
      3370  -36.319493      0.31206221    -36.007431      0.029597591    344.88833     -824.63719      1728         
      3380  -36.345479      0.33375711    -36.011722      0.029597591    368.86534      477.12599      1728         
      3390  -36.43149       0.40642035    -36.02507       0.029597591    449.17209      12.145882      1728         
      3400  -36.320239      0.2860391     -36.0342        0.029597591    316.12783      405.57134      1728         
      3410  -36.240663      0.19104812    -36.049615      0.029597591    211.14466      1244.4415      1728         
      3420  -36.383736      0.31563675    -36.068099      0.029597591    348.83888      1073.3384      1728         
      3430  -36.349357      0.27337167    -36.075985      0.029597591    302.1279      -793.22792      1728         
      3440  -36.328511      0.23395201    -36.094559      0.029597591    258.56165      1234.9878      1728         
      3450  -36.341893      0.23541311    -36.10648       0.029597591    260.17644     -1303.9069      1728         
      3460  -36.307682      0.19759246    -36.11009       0.029597591    218.3774       62.216559      1728         
      3470  -36.285322      0.16366382    -36.121658      0.029597591    180.87977     -156.40335      1728         
      3480  -36.279059      0.14434408    -36.134715      0.029597591    159.52777     -605.04828      1728         
      3490  -36.312057      0.16777718    -36.14428       0.029597591    185.42582     -773.49467      1728         
      3500  -36.360042      0.20564875    -36.154394      0.029597591    227.28114      972.04777      1728         
      3510  -36.321418      0.16246475    -36.158954      0.029597591    179.55457     -1640.1772      1728         
      3520  -36.356537      0.1947568     -36.16178       0.029597591    215.24345      529.19142      1728         
      3530  -36.452136      0.28212025    -36.170015      0.029597591    311.79675     -461.28357      1728         
      3540  -36.409806      0.23206436    -36.177741      0.029597591    256.47543      154.74916      1728         
      3550  -36.309775      0.12141747    -36.188357      0.029597591    134.18949      1317.1939      1728         
      3560  -36.353817      0.15912967    -36.194687      0.029597591    175.86868      1206.6218      1728         
      3570  -36.437374      0.2304802     -36.206894      0.029597591    254.72463     -486.82537      1728         
      3580  -36.412531      0.19882729    -36.213704      0.029597591    219.74212      1204.0243      1728         
      3590  -36.387876      0.15908478    -36.228791      0.029597591    175.81906     -1473.2356      1728         
      3600  -36.410876      0.17759824    -36.233278      0.029597591    196.27997     -167.17834      1728         
      3610  -36.357428      0.11993418    -36.237493      0.029597591    132.55017      601.3974       1728         
      3620  -36.336194      0.089814242   -36.24638       0.029597591    99.261888     -686.2153       1728         
      3630  -36.394259      0.13783836    -36.256421      0.029597591    152.33771     -218.41023      1728         
      3640  -36.369443      0.10494683    -36.264496      0.029597591    115.98629      46.389752      1728         
      3650  -36.34664       0.077933662   -36.268706      0.029597591    86.131578     -953.78423      1728         
      3660  -36.396514      0.12878717    -36.267727      0.029597591    142.33441      444.16314      1728         
      3670  -36.382988      0.10925217    -36.273735      0.029597591    120.74451      73.36393       1728         
      3680  -36.374153      0.098736637   -36.275416      0.029597591    109.12284     -703.98623      1728         
      3690  -36.451859      0.18011781    -36.271741      0.029597591    199.06458      177.13028      1728         
      3700  -36.440486      0.16279658    -36.277689      0.029597591    179.92131     -546.13092      1728         
      3710  -36.415309      0.14648204    -36.268827      0.029597591    161.89063      478.48411      1728         
      3720  -36.412951      0.1416216     -36.271329      0.029597591    156.51891      1039.4595      1728         
      3730  -36.358296      0.086173959   -36.272122      0.029597591    95.238679      458.83716      1728         
      3740  -36.425298      0.15672874    -36.26857       0.029597591    173.21518      322.65997      1728         
      3750  -36.477518      0.22117444    -36.256344      0.029597591    244.43999      897.6606       1728         
      3760  -36.371159      0.12717793    -36.243981      0.029597591    140.5559      -1961.9991      1728         
      3770  -36.361561      0.13188457    -36.229676      0.029597591    145.75764      685.26852      1728         
      3780  -36.373763      0.15903294    -36.21473       0.029597591    175.76177     -530.88863      1728         
      3790  -36.301922      0.097739633   -36.204182      0.029597591    108.02096     -33.984716      1728         
      3800  -36.311639      0.11718723    -36.194452      0.029597591    129.51426      164.11503      1728         
      3810  -36.336169      0.16247017    -36.173699      0.029597591    179.56056     -197.77328      1728         
      3820  -36.280707      0.12139595    -36.159311      0.029597591    134.1657      -1336.6959      1728         
      3830  -36.303279      0.15758798    -36.145691      0.029597591    174.16481      1358.2111      1728         
      3840  -36.317556      0.18914675    -36.128409      0.029597591    209.04328     -1609.9799      1728         
      3850  -36.292471      0.17620281    -36.116268      0.029597591    194.73775      940.17714      1728         
      3860  -36.324305      0.23030869    -36.093997      0.029597591    254.53508     -251.47755      1728         
      3870  -36.345384      0.26494105    -36.080443      0.029597591    292.81045     -447.98561      1728         
      3880  -36.321193      0.25734415    -36.063849      0.029597591    284.41442      272.17884      1728         
      3890  -36.325013      0.26659935    -36.058414      0.029597591    294.64319      1665.5492      1728         
      3900  -36.286607      0.23371609    -36.052891      0.029597591    258.3009      -876.04852      1728         
      3910  -36.297435      0.25973136    -36.037704      0.029597591    287.05275      1977.6428      1728         
      3920  -36.41495       0.38869192    -36.026258      0.029597591    429.57879     -210.02327      1728         
      3930  -36.339689      0.32274855    -36.01694       0.029597591    356.69878     -1448.3527      1728         
      3940  -36.194274      0.18887644    -36.005398      0.029597591    208.74453      434.65918      1728         
      3950  -36.296394      0.29707618    -35.999317      0.029597591    328.32591     -612.54759      1728         
      3960  -36.304271      0.31928865    -35.984982      0.029597591    352.87493     -800.56368      1728         
      3970  -36.131203      0.15512327    -35.97608       0.029597591    171.44083      1432.9493      1728         
      3980  -36.22513       0.25248965    -35.97264       0.029597591    279.04928     -649.29815      1728         
      3990  -36.340765      0.37871677    -35.962048      0.029597591    418.55435     -592.81923      1728         
      4000  -36.151435      0.19982965    -35.951605      0.029597591    220.84992      730.30225      1728         
      4010  -36.149019      0.21234964    -35.936669      0.029597591    234.6869      -1424.7097      1728         
      4020  -36.332048      0.40827352    -35.923774      0.029597591    451.22021      493.14683      1728         
      4030  -36.148358      0.23632257    -35.912036      0.029597591    261.18157      429.66221      1728         
      4040  -36.132829      0.22802789    -35.904801      0.029597591    252.01436     -70.465883      1728         
      4050  -36.293318      0.40347067    -35.889848      0.029597591    445.91214     -34.053931      1728         
      4060  -36.160644      0.29067534    -35.869969      0.029597591    321.25176     -364.67102      1728         
      4070  -36.190087      0.3333051     -35.856782      0.029597591    368.36578     -1870.2165      1728         
      4080  -36.337037      0.49068874    -35.846349      0.029597591    542.30476      1664.5256      1728         
      4090  -36.126463      0.29054192    -35.835921      0.029597591    321.1043      -421.64722      1728         
      4100  -36.189724      0.35717043    -35.832553      0.029597591    394.74153      1544.6616      1728         
      4110  -36.24733       0.41999403    -35.827336      0.029597591    464.1736       619.7424       1728         
      4120  -36.132278      0.29703109    -35.835247      0.029597591    328.27607      534.12612      1728         
      4130  -36.274137      0.44069185    -35.833445      0.029597591    487.04864     -447.50398      1728         
      4140  -36.323809      0.47503304    -35.848776      0.029597591    525.00222      365.85221      1728         
      4150  -36.062078      0.2134663     -35.848611      0.029597591    235.92102     -977.71587      1728         
      4160  -36.184372      0.32382676    -35.860545      0.029597591    357.8904       1632.508       1728         
      4170  -36.243297      0.36302487    -35.880272      0.029597591    401.21181     -1560.4833      1728         
      4180  -36.09388       0.19942172    -35.894458      0.029597591    220.39908     -375.62243      1728         
      4190  -36.070228      0.16594828    -35.904279      0.029597591    183.40453     -338.09872      1728         
      4200  -36.239406      0.31773545    -35.92167       0.029597591    351.15834     -505.89746      1728         
      4210  -36.185948      0.25193528    -35.934012      0.029597591    278.4366      -613.26352      1728         
      4220  -36.193526      0.24291584    -35.950611      0.029597591    268.46839      1595.4435      1728         
      4230  -36.258277      0.29281599    -35.965461      0.029597591    323.61759     -1782.7526      1728         
      4240  -36.350982      0.36795787    -35.983024      0.029597591    406.66371      246.28377      1728         
      4250  -36.295321      0.29397373    -36.001348      0.029597591    324.89711      308.08422      1728         
      4260  -36.314563      0.2944485     -36.020114      0.029597591    325.42182      120.20448      1728         
      4270  -36.233119      0.18876647    -36.044352      0.029597591    208.623        1306.5036      1728         
      4280  -36.31671       0.25976406    -36.056945      0.029597591    287.08889      1006.5219      1728         
      4290  -36.395095      0.32267793    -36.072417      0.029597591    356.62073     -416.64143      1728         
      4300  -36.313911      0.22428494    -36.089627      0.029597591    247.87769      325.69639      1728         
      4310  -36.31244       0.21618932    -36.096251      0.029597591    238.93048     -905.46278      1728         
      4320  -36.331853      0.23100657    -36.100847      0.029597591    255.30637     -977.94177      1728         
      4330  -36.250551      0.14323236    -36.107319      0.029597591    158.29911      1100.4541      1728         
      4340  -36.250496      0.13856694    -36.111929      0.029597591    153.14293     -379.44044      1728         
      4350  -36.321527      0.20663034    -36.114897      0.029597591    228.36598     -51.783318      1728         
      4360  -36.26173       0.15207309    -36.109657      0.029597591    168.0698       57.179183      1728         
      4370  -36.239127      0.13096995    -36.108157      0.029597591    144.7468      -557.46753      1728         
      4380  -36.297143      0.19283337    -36.10431       0.029597591    213.1177      -282.10332      1728         
      4390  -36.258674      0.15573268    -36.102941      0.029597591    172.11435      917.95762      1728         
      4400  -36.234467      0.13357158    -36.100896      0.029597591    147.6221      -821.71649      1728         
      4410  -36.287859      0.19648175    -36.091377      0.029597591    217.14985      907.0784       1728         
      4420  -36.224774      0.14068813    -36.084086      0.029597591    155.48725     -1128.0573      1728         
      4430  -36.273086      0.19668099    -36.076405      0.029597591    217.37005     -701.59522      1728         
      4440  -36.408758      0.34280887    -36.065949      0.029597591    378.86926     -273.32333      1728         
      4450  -36.303267      0.2458154     -36.057451      0.029597591    271.67296      907.51314      1728         
      4460  -36.21981       0.17619559    -36.043615      0.029597591    194.72977      249.17804      1728         
      4470  -36.284617      0.23847574    -36.046141      0.029597591    263.56123      2399.9511      1728         
      4480  -36.266953      0.2193201     -36.047633      0.029597591    242.39059     -717.38681      1728         
      4490  -36.338876      0.30697835    -36.031898      0.029597591    339.26969      1104.0712      1728         
      4500  -36.331067      0.2996628     -36.031404      0.029597591    331.18461     -1166.4652      1728         
      4510  -36.192348      0.17959224    -36.012756      0.029597591    198.48371      219.2031       1728         
      4520  -36.208645      0.1976978     -36.010948      0.029597591    218.49382      4.322452       1728         
      4530  -36.233673      0.22321575    -36.010457      0.029597591    246.69603      73.686512      1728         
      4540  -36.153341      0.14506245    -36.008278      0.029597591    160.32171     -1692.023       1728         
      4550  -36.189551      0.18382863    -36.005722      0.029597591    203.16574      643.01094      1728         
      4560  -36.206674      0.21157803    -35.995096      0.029597591    233.83412     -1578.953       1728         
      4570  -36.216121      0.22697119    -35.98915       0.029597591    250.84651      399.42747      1728         
      4580  -36.23415       0.2508636     -35.983287      0.029597591    277.25218      479.7451       1728         
      4590  -36.255158      0.28775354    -35.967405      0.029597591    318.02261     -762.62186      1728         
      4600  -36.352457      0.39340954    -35.959047      0.029597591    434.79266      43.101583      1728         
      4610  -36.251388      0.31671049    -35.934678      0.029597591    350.02557      1098.8145      1728         
      4620  -36.180035      0.23982223    -35.940213      0.029597591    265.04935      543.06292      1728         
      4630  -36.297618      0.35008286    -35.947535      0.029597591    386.90841      1216.9404      1728         
      4640  -36.243318      0.3125274     -35.93079       0.029597591    345.40246      757.95734      1728         
      4650  -36.308983      0.37625237    -35.932731      0.029597591    415.83071     -967.0304       1728         
      4660  -36.223538      0.30041174    -35.923126      0.029597591    332.01233     -3.3192671      1728         
      4670  -36.144251      0.22280168    -35.921449      0.029597591    246.2384      -1047.5009      1728         
      4680  -36.201238      0.28472142    -35.916516      0.029597591    314.67153      17.696369      1728         
      4690  -36.153172      0.23571485    -35.917457      0.029597591    260.50992      87.631861      1728         
      4700  -36.133766      0.21292691    -35.920839      0.029597591    235.3249       155.09277      1728         
      4710  -36.233991      0.31693585    -35.917055      0.029597591    350.27464     -396.56825      1728         
      4720  -36.11794       0.20264457    -35.915296      0.029597591    223.96095      363.84862      1728         
      4730  -36.115032      0.20460668    -35.910426      0.029597591    226.12946     -1174.6974      1728         
      4740  -36.261698      0.35588498    -35.905813      0.029597591    393.32086      644.9919       1728         
      4750  -36.133243      0.2308141     -35.902429      0.029597591    255.09365     -576.19466      1728         
      4760  -36.078062      0.18274751    -35.895315      0.029597591    201.9709       811.70793      1728         
      4770  -36.298378      0.41645773    -35.881921      0.029597591    460.26532     -820.22101      1728         
      4780  -36.193986      0.31414068    -35.879845      0.029597591    347.18544      188.75222      1728         
      4790  -36.163599      0.29213446    -35.871464      0.029597591    322.86436     -270.3049       1728         
      4800  -36.226752      0.35687214    -35.86988       0.029597591    394.41186      1584.2743      1728         
      4810  -36.116679      0.25193642    -35.864743      0.029597591    278.43785     -524.41983      1728         
      4820  -36.189368      0.32784112    -35.861527      0.029597591    362.32704      1753.1305      1728         
      4830  -36.265652      0.40863058    -35.857021      0.029597591    451.61482     -29.596951      1728         
      4840  -36.191615      0.33227947    -35.859336      0.029597591    367.23226     -559.9759       1728         
      4850  -36.137981      0.27613274    -35.861848      0.029597591    305.1794      -643.48621      1728         
      4860  -36.191491      0.33354568    -35.857945      0.029597591    368.63167     -30.094441      1728         
      4870  -36.120129      0.25639807    -35.863731      0.029597591    283.36882     -806.8277       1728         
      4880  -36.087708      0.2180495     -35.869658      0.029597591    240.98634      1466.75        1728         
      4890  -36.185347      0.30811092    -35.877236      0.029597591    340.5214      -966.58591      1728         
      4900  -36.206937      0.32287378    -35.884064      0.029597591    356.83719     -436.08182      1728         
      4910  -36.105808      0.22164857    -35.884159      0.029597591    244.96399     -327.91329      1728         
      4920  -36.263427      0.36988828    -35.893539      0.029597591    408.79718     -810.57397      1728         
      4930  -36.303255      0.39245543    -35.9108        0.029597591    433.73819      531.39443      1728         
      4940  -36.184412      0.26236168    -35.92205       0.029597591    289.95976      1227.2232      1728         
      4950  -36.171176      0.23131668    -35.939859      0.029597591    255.64911      317.2          1728         
      4960  -36.265878      0.31084438    -35.955033      0.029597591    343.54239      702.59226      1728         
      4970  -36.285104      0.31651976    -35.968585      0.029597591    349.81477      654.64249      1728         
      4980  -36.281248      0.29616879    -35.985079      0.029597591    327.32306     -1177.115       1728         
      4990  -36.231049      0.22761555    -36.003433      0.029597591    251.55864      234.86234      1728         
      5000  -36.236987      0.22563195    -36.011355      0.029597591    249.36639     -169.0382       1728         
      5010  -36.210653      0.19363444    -36.017019      0.029597591    214.00303      161.92886      1728         
      5020  -36.189695      0.16366692    -36.026028      0.029597591    180.8832       127.67103      1728         
      5030  -36.203281      0.16855063    -36.034731      0.029597591    186.28064     -7.8061142      1728         
      5040  -36.229519      0.19053794    -36.038981      0.029597591    210.5808      -906.37923      1728         
      5050  -36.210196      0.1648017     -36.045395      0.029597591    182.13735      614.54657      1728         
      5060  -36.163923      0.11905429    -36.044868      0.029597591    131.57773     -905.30598      1728         
      5070  -36.228955      0.17888093    -36.050074      0.029597591    197.69759      384.22017      1728         
      5080  -36.249975      0.19479962    -36.055175      0.029597591    215.29077     -441.8925       1728         
      5090  -36.216974      0.16370405    -36.05327       0.029597591    180.92423     -155.89176      1728         
      5100  -36.231479      0.18592069    -36.045559      0.029597591    205.47786     -827.83578      1728         
      5110  -36.356495      0.32328023    -36.033215      0.029597591    357.28638      168.86086      1728         
      5120  -36.319281      0.28755913    -36.031722      0.029597591    317.80774     -41.577012      1728         
      5130  -36.22197       0.19652546    -36.025444      0.029597591    217.19816      2041.4432      1728         
      5140  -36.189879      0.15674913    -36.03313       0.029597591    173.23772      771.80283      1728         
      5150  -36.355203      0.31894981    -36.036254      0.029597591    352.50044      822.46942      1728         
      5160  -36.369857      0.34922255    -36.020634      0.029597591    385.95761     -634.72861      1728         
      5170  -36.240484      0.23849997    -36.001984      0.029597591    263.58801      65.677975      1728         
      5180  -36.219312      0.22174465    -35.997567      0.029597591    245.07019     -84.229006      1728         
      5190  -36.203841      0.20643554    -35.997405      0.029597591    228.15069     -31.321686      1728         
      5200  -36.172983      0.17854219    -35.994441      0.029597591    197.32322     -1355.3835      1728         
      5210  -36.132466      0.14951222    -35.982954      0.029597591    165.23955     -132.11182      1728         
      5220  -36.117523      0.14206206    -35.975461      0.029597591    157.0057      -1071.757       1728         
      5230  -36.204737      0.2411047     -35.963633      0.029597591    266.46673     -290.23836      1728         
      5240  -36.258366      0.31177231    -35.946594      0.029597591    344.56793      93.539898      1728         
      5250  -36.208882      0.28636834    -35.922513      0.029597591    316.4917      -104.33054      1728         
      5260  -36.337485      0.46509612    -35.872389      0.029597591    514.02002     -204.09774      1728         
      5270  -36.243676      0.41554781    -35.828129      0.029597591    459.25969      1008.8371      1728         
      5280  -36.083778      0.26179414    -35.821984      0.029597591    289.33252      1627.7483      1728         
      5290  -36.183093      0.36621155    -35.816881      0.029597591    404.73369      1246.3434      1728         
      5300  -36.273765      0.49588183    -35.777884      0.029597591    548.04412      537.11884      1728         
      5310  -36.225674      0.46631156    -35.759363      0.029597591    515.36331     -745.87386      1728         
      5320  -36.119821      0.38274998    -35.737071      0.029597591    423.01181      421.32304      1728         
      5330  -36.058201      0.32386395    -35.734337      0.029597591    357.9315      -799.60031      1728         
      5340  -36.092925      0.35466532    -35.73826       0.029597591    391.9729      -608.24741      1728         
      5350  -35.999759      0.25994066    -35.739818      0.029597591    287.28406     -703.62442      1728         
      5360  -35.982085      0.24676535    -35.735319      0.029597591    272.72283     -590.18545      1728         
      5370  -36.051568      0.3161225     -35.735445      0.029597591    349.37573     -751.22713      1728         
      5380  -36.147666      0.40507689    -35.742589      0.029597591    447.68732     -225.2118       1728         
      5390  -36.152638      0.40453644    -35.748101      0.029597591    447.09002     -400.13052      1728         
      5400  -36.179038      0.43423655    -35.744802      0.029597591    479.91431     -35.317809      1728         
      5410  -36.207656      0.44838105    -35.759275      0.029597591    495.54668      368.65991      1728         
      5420  -36.194744      0.42518378    -35.76956       0.029597591    469.90926      1284.5063      1728         
      5430  -36.030707      0.22917454    -35.801532      0.029597591    253.28163      1683.2047      1728         
      5440  -36.291738      0.45098148    -35.840756      0.029597591    498.42065      717.9947       1728         
      5450  -36.288713      0.41662957    -35.872083      0.029597591    460.45523     -497.45442      1728         
      5460  -36.209313      0.31259       -35.896723      0.029597591    345.47164      302.64074      1728         
      5470  -36.219942      0.29465347    -35.925288      0.029597591    325.64835     -236.85876      1728         
      5480  -36.206655      0.24521373    -35.961441      0.029597591    271.008        61.934085      1728         
      5490  -36.160426      0.177054      -35.983372      0.029597591    195.67848     -850.2767       1728         
      5500  -36.18345       0.18434543    -35.999104      0.029597591    203.7369      -448.10598      1728         
      5510  -36.150642      0.14669744    -36.003945      0.029597591    162.12868     -1013.4976      1728         
      5520  -36.22828       0.2155432     -36.012737      0.029597591    238.21639     -123.93763      1728         
      5530  -36.258857      0.2351371     -36.02372       0.029597591    259.87139     -400.21515      1728         
      5540  -36.233728      0.20913851    -36.02459       0.029597591    231.13799      476.00735      1728         
      5550  -36.339676      0.32731456    -36.012361      0.029597591    361.7451      -940.6407       1728         
      5560  -36.306385      0.29227901    -36.014106      0.029597591    323.02412      810.54549      1728         
      5570  -36.172379      0.15954621    -36.012833      0.029597591    176.32902      790.97255      1728         
      5580  -36.233109      0.20906808    -36.024041      0.029597591    231.06015      1672.7359      1728         
      5590  -36.31821       0.28947809    -36.028732      0.029597591    319.92856      11.97305       1728         
      5600  -36.330741      0.30959408    -36.021147      0.029597591    342.16058      571.31521      1728         
      5610  -36.29655       0.28106074    -36.015489      0.029597591    310.62578     -944.54523      1728         
      5620  -36.26146       0.25466277    -36.006797      0.029597591    281.45099      277.95788      1728         
      5630  -36.220085      0.21267364    -36.007412      0.029597591    235.04499     -350.66918      1728         
      5640  -36.236449      0.22626601    -36.010183      0.029597591    250.06714     -266.70262      1728         
      5650  -36.218218      0.20770722    -36.010511      0.029597591    229.55615     -841.35703      1728         
      5660  -36.188361      0.1839548     -36.004406      0.029597591    203.30519      16.261397      1728         
      5670  -36.212863      0.21098606    -36.001877      0.029597591    233.17989     -948.04166      1728         
      5680  -36.233437      0.23523571    -35.998201      0.029597591    259.98038     -3.8655393      1728         
      5690  -36.23482       0.24112375    -35.993697      0.029597591    266.48779      195.94242      1728         
      5700  -36.225311      0.2457791     -35.979532      0.029597591    271.63284     -306.94075      1728         
      5710  -36.238449      0.28262314    -35.955826      0.029597591    312.35254     -284.78043      1728         
      5720  -36.250445      0.30288602    -35.947559      0.029597591    334.74689      642.47038      1728         
      5730  -36.181942      0.24860275    -35.933339      0.029597591    274.75351      432.52025      1728         
      5740  -36.111466      0.17732001    -35.934146      0.029597591    195.97247      1107.16        1728         
      5750  -36.243809      0.31903441    -35.924774      0.029597591    352.59394      691.7137       1728         
      5760  -36.259482      0.36221844    -35.897264      0.029597591    400.32054     -257.2524       1728         
      5770  -36.183093      0.30139163    -35.881701      0.029597591    333.09531      230.3494       1728         
      5780  -36.19165       0.33748233    -35.854168      0.029597591    372.98242     -136.03999      1728         
      5790  -36.172773      0.32796336    -35.84481       0.029597591    362.46214     -346.498        1728         
      5800  -36.105144      0.27055666    -35.834588      0.029597591    299.01678     -533.68696      1728         
      5810  -36.094249      0.27329948    -35.82095       0.029597591    302.04811     -575.0632       1728         
      5820  -36.076053      0.2665485     -35.809505      0.029597591    294.58699     -936.84252      1728         
      5830  -36.077782      0.27907813    -35.798703      0.029597591    308.43462      202.52656      1728         
      5840  -36.13483       0.35001036    -35.784819      0.029597591    386.82829     -1518.8293      1728         
      5850  -36.200755      0.42531965    -35.775435      0.029597591    470.05943      668.78721      1728         
      5860  -36.200777      0.44659232    -35.754184      0.029597591    493.56979     -568.89568      1728         
      5870  -36.251655      0.51874734    -35.732908      0.029597591    573.31487      161.42834      1728         
      5880  -36.191564      0.46829347    -35.723271      0.029597591    517.55371      418.5311       1728         
      5890  -36.046739      0.30680206    -35.739937      0.029597591    339.07487      2609.9669      1728         
      5900  -36.150329      0.39006065    -35.760269      0.029597591    431.0915       100.65579      1728         
      5910  -36.209938      0.45580947    -35.754129      0.029597591    503.75651      1509.8384      1728         
      5920  -36.185087      0.40992713    -35.77516       0.029597591    453.04776     -1350.0827      1728         
      5930  -36.16041       0.37872153    -35.781688      0.029597591    418.5596       759.24299      1728         
      5940  -36.121029      0.30862345    -35.812405      0.029597591    341.08784     -585.10933      1728         
      5950  -36.050537      0.21275527    -35.837782      0.029597591    235.1352      -405.79778      1728         
      5960  -36.043245      0.19306471    -35.85018       0.029597591    213.37337     -1118.1461      1728         
      5970  -36.089256      0.22161682    -35.867639      0.029597591    244.92891     -168.71455      1728         
      5980  -36.057587      0.1747381     -35.882849      0.029597591    193.11897     -1510.2987      1728         
      5990  -36.155578      0.25396309    -35.901615      0.029597591    280.67771      363.28095      1728         
      6000  -36.26647       0.33486564    -35.931604      0.029597591    370.09047     -369.17539      1728         
      6010  -36.253369      0.30951725    -35.943852      0.029597591    342.07566     -30.576572      1728         
      6020  -36.300153      0.34224034    -35.957913      0.029597591    378.24093      72.383308      1728         
      6030  -36.327162      0.3476845     -35.979477      0.029597591    384.25776      425.37132      1728         
      6040  -36.176861      0.16847002    -36.008391      0.029597591    186.19154      1364.1383      1728         
      6050  -36.294251      0.26248395    -36.031767      0.029597591    290.09488      1350.605       1728         
      6060  -36.352246      0.32078016    -36.031466      0.029597591    354.52334     -80.614911      1728         
      6070  -36.330805      0.28127337    -36.049531      0.029597591    310.86078     -213.98813      1728         
      6080  -36.249122      0.20009892    -36.049023      0.029597591    221.14751     -407.61199      1728         
      6090  -36.215328      0.1660485     -36.049279      0.029597591    183.5153      -619.33518      1728         
      6100  -36.234875      0.18849552    -36.04638       0.029597591    208.32355      454.78822      1728         
      6110  -36.236012      0.19170901    -36.044303      0.029597591    211.87506     -361.95422      1728         
      6120  -36.17524       0.12836357    -36.046877      0.029597591    141.86625     -413.58599      1728         
      6130  -36.224543      0.17732037    -36.047223      0.029597591    195.97287     -31.37332       1728         
      6140  -36.2246        0.17816806    -36.046432      0.029597591    196.90973     -677.23266      1728         
      6150  -36.177301      0.1357116     -36.041589      0.029597591    149.98724     -162.13338      1728         
      6160  -36.23518       0.20551205    -36.029668      0.029597591    227.13006      604.94058      1728         
      6170  -36.211309      0.19008298    -36.021226      0.029597591    210.07799     -502.22757      1728         
      6180  -36.153816      0.13786723    -36.015949      0.029597591    152.36961      982.86869      1728         
      6190  -36.207839      0.19776159    -36.010077      0.029597591    218.56432     -65.047777      1728         
      6200  -36.218983      0.22224913    -35.996734      0.029597591    245.62773     -972.95204      1728         
      6210  -36.18058       0.20438389    -35.976196      0.029597591    225.88323     -686.64455      1728         
      6220  -36.321369      0.35807463    -35.963294      0.029597591    395.74085      79.063449      1728         
      6230  -36.290341      0.34514019    -35.945201      0.029597591    381.44582     -49.03907       1728         
      6240  -36.177229      0.24796431    -35.929265      0.029597591    274.04791      2049.2673      1728         
      6250  -36.157384      0.2306372     -35.926747      0.029597591    254.89815      424.30305      1728         
      6260  -36.271979      0.35223173    -35.919747      0.029597591    389.28332      724.32124      1728         
      6270  -36.310643      0.41256582    -35.898077      0.029597591    455.96401      105.21036      1728         
      6280  -36.160364      0.27107669    -35.889287      0.029597591    299.59151     -685.83978      1728         
      6290  -36.180187      0.30986898    -35.870318      0.029597591    342.4644       128.89202      1728         
      6300  -36.182348      0.31132227    -35.871025      0.029597591    344.07056      626.35633      1728         
      6310  -36.067123      0.2038249     -35.863298      0.029597591    225.26544     -1402.3498      1728         
      6320  -36.077995      0.21827213    -35.859723      0.029597591    241.23239      239.49275      1728         
      6330  -36.035484      0.18116375    -35.854321      0.029597591    200.22054     -1204.3583      1728         
      6340  -36.086476      0.23815201    -35.848324      0.029597591    263.20345     -788.26474      1728         
      6350  -36.115887      0.27617406    -35.839713      0.029597591    305.22507     -70.373177      1728         
      6360  -36.135738      0.30619948    -35.829539      0.029597591    338.40889      116.30895      1728         
      6370  -36.13389       0.316264      -35.817626      0.029597591    349.53212     -379.50964      1728         
      6380  -36.27034       0.48120942    -35.78913       0.029597591    531.8283       477.5287       1728         
      6390  -36.106243      0.32754586    -35.778697      0.029597591    362.00072     -435.55487      1728         
      6400  -36.113034      0.33462952    -35.778404      0.029597591    369.82951      1905.4026      1728         
      6410  -36.142328      0.36562619    -35.776702      0.029597591    404.08676      1068.6201      1728         
      6420  -36.151418      0.37577182    -35.775646      0.029597591    415.29962      295.48268      1728         
[...]
    148410  -35.227333      0.17127863    -35.056055      0.029597591    189.2956      -276.08403      1728         
    148420  -35.248471      0.19557676    -35.052894      0.029597591    216.14967      713.28608      1728         
    148430  -35.256541      0.20701853    -35.049523      0.029597591    228.795       -357.77814      1728         
    148440  -35.283343      0.23898547    -35.044358      0.029597591    264.12458      60.456135      1728         
    148450  -35.230791      0.19206966    -35.038721      0.029597591    212.27365     -542.68689      1728         
    148460  -35.205596      0.17672298    -35.028873      0.029597591    195.31264      106.44788      1728         
    148470  -35.191656      0.1673926     -35.024264      0.029597591    185.00079     -1105.0394      1728         
    148480  -35.200198      0.18597142    -35.014227      0.029597591    205.53393      585.15249      1728         
    148490  -35.186305      0.18285056    -35.003455      0.029597591    202.08478      465.80171      1728         
    148500  -35.170032      0.17506553    -34.994967      0.029597591    193.48084      571.31373      1728         
    148510  -35.152213      0.1716276     -34.980585      0.029597591    189.68127      82.009316      1728         
    148520  -35.228316      0.25656428    -34.971751      0.029597591    283.55253     -191.29521      1728         
    148530  -35.195068      0.23887068    -34.956197      0.029597591    263.99771     -765.58298      1728         
    148540  -35.164634      0.22552598    -34.939108      0.029597591    249.24927      698.93498      1728         
    148550  -35.130754      0.20481495    -34.925939      0.029597591    226.35963      310.19771      1728         
    148560  -35.162183      0.25154804    -34.910635      0.029597591    278.00861     -839.82967      1728         
    148570  -35.185185      0.2917938     -34.893391      0.029597591    322.48786      11.78776       1728         
    148580  -35.182568      0.30694498    -34.875623      0.029597591    339.23281      533.48579      1728         
    148590  -35.121005      0.25850503    -34.8625        0.029597591    285.69742      339.5257       1728         
    148600  -35.169023      0.31405585    -34.854967      0.029597591    347.09168     -371.62194      1728         
    148610  -35.186723      0.35000267    -34.83672       0.029597591    386.81978     -302.14862      1728         
    148620  -35.148487      0.3228431     -34.825644      0.029597591    356.80328     -672.40708      1728         
    148630  -35.098864      0.2820834     -34.81678       0.029597591    311.75603      388.03027      1728         
    148640  -35.141868      0.3317449     -34.810124      0.029597591    366.64146     -13.658728      1728         
    148650  -35.153139      0.34754735    -34.805591      0.029597591    384.10619     -627.78512      1728         
    148660  -35.167676      0.37370607    -34.79397       0.029597591    413.01656     -293.12852      1728         
    148670  -35.044597      0.25403868    -34.790558      0.029597591    280.76125     -112.02714      1728         
    148680  -35.094947      0.3067848     -34.788162      0.029597591    339.05579     -319.68613      1728         
    148690  -35.168002      0.37918681    -34.788815      0.029597591    419.07383     -466.67748      1728         
    148700  -35.106951      0.32421164    -34.78274       0.029597591    358.31577      141.08448      1728         
    148710  -35.066657      0.29139893    -34.775258      0.029597591    322.05146      948.03357      1728         
    148720  -35.074308      0.30046428    -34.773843      0.029597591    332.07041      1113.3391      1728         
    148730  -35.157212      0.38201972    -34.775192      0.029597591    422.20474      60.323171      1728         
    148740  -35.169462      0.39029016    -34.779171      0.029597591    431.34516     -881.84653      1728         
    148750  -35.086859      0.30973293    -34.777126      0.029597591    342.31403      445.76945      1728         
    148760  -35.08556       0.30991589    -34.775644      0.029597591    342.51624     -354.47058      1728         
    148770  -35.165463      0.38997593    -34.775487      0.029597591    430.99786      426.82231      1728         
    148780  -35.134625      0.35408515    -34.78054       0.029597591    391.3317      -4.1527437      1728         
    148790  -35.108928      0.32205045    -34.786878      0.029597591    355.92724     -439.60036      1728         
    148800  -35.079751      0.28893294    -34.790818      0.029597591    319.32607     -849.13085      1728         
    148810  -35.142614      0.35475779    -34.787856      0.029597591    392.0751       169.68344      1728         
    148820  -35.14707       0.35352098    -34.793549      0.029597591    390.70819     -346.97117      1728         
    148830  -35.053923      0.25654343    -34.79738       0.029597591    283.52948     -361.77959      1728         
    148840  -35.062129      0.26280387    -34.799325      0.029597591    290.44846      425.7205       1728         
    148850  -35.139205      0.33556618    -34.803639      0.029597591    370.8647      -43.494563      1728         
    148860  -35.138021      0.33576371    -34.802258      0.029597591    371.08302      27.308618      1728         
    148870  -35.093599      0.2894858     -34.804113      0.029597591    319.93709      1196.8374      1728         
    148880  -35.138886      0.33553695    -34.803349      0.029597591    370.8324       1271.9206      1728         
    148890  -35.15241       0.32810891    -34.824301      0.029597591    362.623       -2564.1225      1728         
    148900  -35.119364      0.297019      -34.822345      0.029597591    328.26271      439.05808      1728         
    148910  -35.091703      0.26943867    -34.822264      0.029597591    297.78118      681.96425      1728         
    148920  -35.110169      0.27808977    -34.832079      0.029597591    307.3423      -658.30017      1728         
    148930  -35.098374      0.25790535    -34.840468      0.029597591    285.03466     -854.01438      1728         
    148940  -35.119803      0.27166111    -34.848141      0.029597591    300.2374       767.14572      1728         
    148950  -35.082486      0.22343611    -34.85905       0.029597591    246.93957      554.24224      1728         
    148960  -35.120355      0.25157887    -34.868776      0.029597591    278.04269      323.97685      1728         
    148970  -35.157848      0.27505451    -34.882794      0.029597591    303.98776      309.88922      1728         
    148980  -35.175851      0.27390934    -34.901942      0.029597591    302.72213      394.30893      1728         
    148990  -35.123911      0.20266641    -34.921245      0.029597591    223.98508     -298.4472       1728         
    149000  -35.145609      0.21181249    -34.933797      0.029597591    234.09325      843.5948       1728         
    149010  -35.1856        0.24106415    -34.944536      0.029597591    266.42192      232.62755      1728         
    149020  -35.239369      0.27984946    -34.95952       0.029597591    309.28709      1769.3157      1728         
    149030  -35.205081      0.22073859    -34.984343      0.029597591    243.95829     -1151.1331      1728         
    149040  -35.185123      0.18843069    -34.996692      0.029597591    208.25189     -1476.9825      1728         
    149050  -35.220156      0.21802885    -35.002127      0.029597591    240.96352     -1405.9822      1728         
    149060  -35.206715      0.20081238    -35.005902      0.029597591    221.93603     -1170.2341      1728         
    149070  -35.214287      0.19791436    -35.016373      0.029597591    218.73316     -6.3517022      1728         
    149080  -35.206994      0.18306912    -35.023925      0.029597591    202.32634      1467.2878      1728         
    149090  -35.232347      0.20593592    -35.026411      0.029597591    227.59852      1245.6119      1728         
    149100  -35.212331      0.18255495    -35.029776      0.029597591    201.75808      1386.1635      1728         
    149110  -35.175825      0.15090271    -35.024922      0.029597591    166.77631      1541.2726      1728         
    149120  -35.187377      0.16337843    -35.023998      0.029597591    180.56436      964.95437      1728         
    149130  -35.27575       0.25003347    -35.025717      0.029597591    276.33472     -741.52767      1728         
    149140  -35.20322       0.18073694    -35.022483      0.029597591    199.74883     -992.02087      1728         
    149150  -35.182677      0.16303395    -35.019643      0.029597591    180.18365     -1298.344       1728         
    149160  -35.145125      0.13647949    -35.008645      0.029597591    150.8359      -1276.9248      1728         
    149170  -35.22864       0.22594509    -35.002695      0.029597591    249.71247     -1170.5614      1728         
    149180  -35.210989      0.22054677    -34.990442      0.029597591    243.74629     -1185.1862      1728         
    149190  -35.190704      0.21037455    -34.98033       0.029597591    232.50405     -534.48862      1728         
    149200  -35.165743      0.19370148    -34.972042      0.029597591    214.07713      1364.1495      1728         
    149210  -35.206763      0.25654711    -34.950216      0.029597591    283.53355      374.14487      1728         
    149220  -35.155901      0.22400799    -34.931893      0.029597591    247.57161      378.12546      1728         
    149230  -35.125085      0.20915391    -34.915931      0.029597591    231.15501      1205.5742      1728         
    149240  -35.11182       0.21213999    -34.89968       0.029597591    234.4552       1110.3692      1728         
    149250  -35.183907      0.30375492    -34.880152      0.029597591    335.70719      701.61585      1728         
    149260  -35.13478       0.2809442     -34.853836      0.029597591    310.49698      682.60869      1728         
    149270  -35.076641      0.23968315    -34.836958      0.029597591    264.89565      151.98471      1728         
    149280  -35.099044      0.27649058    -34.822553      0.029597591    305.57488      406.57915      1728         
    149290  -35.172363      0.36708819    -34.805275      0.029597591    405.70255      1412.7301      1728         
    149300  -35.180276      0.38979634    -34.79048       0.029597591    430.79939      877.59425      1728         
    149310  -35.090124      0.30897515    -34.781149      0.029597591    341.47654     -1015.9915      1728         
    149320  -35.119003      0.34474601    -34.774257      0.029597591    381.01017     -879.26214      1728         
    149330  -35.117306      0.34685095    -34.770455      0.029597591    383.33654     -1300.8359      1728         
    149340  -35.125007      0.35934318    -34.765664      0.029597591    397.14283      661.92172      1728         
    149350  -35.085645      0.32222648    -34.763418      0.029597591    356.12179      1359.6772      1728         
    149360  -35.10416       0.34097515    -34.763184      0.029597591    376.84266     -348.5607       1728         
    149370  -35.146171      0.37990147    -34.76627       0.029597591    419.86367     -822.55875      1728         
    149380  -35.161816      0.38988265    -34.771933      0.029597591    430.89478     -629.32981      1728         
    149390  -35.027417      0.24917149    -34.778245      0.029597591    275.38208     -1129.2929      1728         
    149400  -35.127321      0.34466385    -34.782657      0.029597591    380.91937     -525.48712      1728         
    149410  -35.09503       0.31159143    -34.783438      0.029597591    344.36803     -169.55224      1728         
    149420  -35.129768      0.33950882    -34.790259      0.029597591    375.22208      270.70388      1728         
    149430  -35.065504      0.26848274    -34.797021      0.029597591    296.72469      444.41368      1728         
    149440  -35.091226      0.28841957    -34.802806      0.029597591    318.7587       741.55598      1728         
    149450  -35.142333      0.3354106     -34.806922      0.029597591    370.69276      1159.4217      1728         
    149460  -35.170154      0.35979883    -34.810356      0.029597591    397.64641      1365.2581      1728         
    149470  -35.109878      0.28753042    -34.822348      0.029597591    317.77602     -780.85083      1728         
    149480  -35.137459      0.30678733    -34.830672      0.029597591    339.05858     -848.41582      1728         
    149490  -35.14092       0.30294926    -34.837971      0.029597591    334.81678      113.69705      1728         
    149500  -35.158334      0.3115659     -34.846768      0.029597591    344.33981      599.03586      1728         
    149510  -35.128877      0.27651161    -34.852366      0.029597591    305.59814     -258.5181       1728         
    149520  -35.126946      0.26707612    -34.859869      0.029597591    295.17012      621.54035      1728         
    149530  -35.201274      0.33398248    -34.867291      0.029597591    369.11442      1222.3881      1728         
    149540  -35.163764      0.28596017    -34.877804      0.029597591    316.04059      867.56146      1728         
    149550  -35.204034      0.31190986    -34.892124      0.029597591    344.71996     -560.45708      1728         
    149560  -35.135517      0.24278355    -34.892733      0.029597591    268.32218      1050.9229      1728         
    149570  -35.254836      0.34835862    -34.906477      0.029597591    385.0028       620.97911      1728         
    149580  -35.192087      0.27292181    -34.919165      0.029597591    301.63072      716.61999      1728         
    149590  -35.181733      0.2502432     -34.93149       0.029597591    276.56652      656.14962      1728         
    149600  -35.187656      0.24550358    -34.942152      0.029597591    271.32833      727.48924      1728         
    149610  -35.228247      0.2784543     -34.949793      0.029597591    307.74518      749.82254      1728         
    149620  -35.193794      0.23282736    -34.960967      0.029597591    257.31869      593.29602      1728         
    149630  -35.232603      0.25879338    -34.97381       0.029597591    286.0161       434.96881      1728         
    149640  -35.173125      0.18964431    -34.98348       0.029597591    209.59318      798.79006      1728         
    149650  -35.270543      0.27401192    -34.996531      0.029597591    302.8355       996.73229      1728         
    149660  -35.261391      0.2549566     -35.006435      0.029597591    281.77573      445.43398      1728         
    149670  -35.222023      0.20123411    -35.020789      0.029597591    222.40212      230.50003      1728         
    149680  -35.281614      0.2475598     -35.034054      0.029597591    273.60085      382.03415      1728         
    149690  -35.257568      0.2052593     -35.052309      0.029597591    226.85072     -291.10337      1728         
    149700  -35.286542      0.22192157    -35.064621      0.029597591    245.26571      1361.8955      1728         
    149710  -35.285564      0.20322961    -35.082335      0.029597591    224.60753      738.30925      1728         
    149720  -35.285178      0.18361713    -35.101561      0.029597591    202.932        1431.5246      1728         
    149730  -35.295796      0.17658133    -35.119215      0.029597591    195.15609      1676.5076      1728         
    149740  -35.319894      0.18216103    -35.137733      0.029597591    201.32272      1616.0454      1728         
    149750  -35.27049       0.11828189    -35.152208      0.029597591    130.72407      1578.0773      1728         
    149760  -35.336721      0.1755292     -35.161192      0.029597591    193.99328      1023.4233      1728         
    149770  -35.314199      0.13688714    -35.177312      0.029597591    151.28643     -70.30709       1728         
    149780  -35.348883      0.16113959    -35.187743      0.029597591    178.09001      46.215292      1728         
    149790  -35.328034      0.13307754    -35.194956      0.029597591    147.07609      927.38507      1728         
    149800  -35.347552      0.14430494    -35.203247      0.029597591    159.48451     -329.73729      1728         
    149810  -35.340048      0.13868443    -35.201363      0.029597591    153.27278      300.84536      1728         
    149820  -35.35534       0.1509587     -35.204381      0.029597591    166.83818      133.75545      1728         
    149830  -35.325295      0.12026896    -35.205026      0.029597591    132.92017      553.04367      1728         
    149840  -35.347106      0.14266706    -35.204439      0.029597591    157.67434     -84.618061      1728         
    149850  -35.342009      0.13937292    -35.202636      0.029597591    154.03369      383.22079      1728         
    149860  -35.34547       0.15115595    -35.194314      0.029597591    167.05619     -523.66046      1728         
    149870  -35.327635      0.13665426    -35.190981      0.029597591    151.02905     -202.5559       1728         
    149880  -35.325691      0.13901169    -35.186679      0.029597591    153.63447     -661.91577      1728         
    149890  -35.353826      0.17179513    -35.18203       0.029597591    189.86642      55.129913      1728         
    149900  -35.33681       0.16092565    -35.175884      0.029597591    177.85358     -612.80097      1728         
    149910  -35.342201      0.17676177    -35.165439      0.029597591    195.35551      575.20881      1728         
    149920  -35.308093      0.14933348    -35.158759      0.029597591    165.04201      126.43635      1728         
    149930  -35.336686      0.18436262    -35.152324      0.029597591    203.7559       783.19811      1728         
    149940  -35.325337      0.18164734    -35.14369       0.029597591    200.75499     -266.97976      1728         
    149950  -35.329627      0.19374468    -35.135882      0.029597591    214.12487      325.14529      1728         
    149960  -35.30515       0.18297498    -35.122175      0.029597591    202.22229     -944.21566      1728         
    149970  -35.336454      0.22375629    -35.112698      0.029597591    247.29343      104.5371       1728         
    149980  -35.29882       0.19646086    -35.102359      0.029597591    217.12677     -588.27209      1728         
    149990  -35.346351      0.25443887    -35.091912      0.029597591    281.20353      758.90732      1728         
    150000  -35.290399      0.20897897    -35.08142       0.029597591    230.96167      226.80513      1728         
Loop time of 654.513 on 1 procs for 150000 steps with 8 atoms

Performance: 9.900 ns/day, 2.424 hours/ns, 229.178 timesteps/s, 1.833 katom-step/s
110.4% CPU use with 1 MPI tasks x 1 OpenMP threads

MPI task timing breakdown:
Section |  min time  |  avg time  |  max time  |%varavg| %total
---------------------------------------------------------------
Pair    | 642.75     | 642.75     | 642.75     |   0.0 | 98.20
Neigh   | 0.021504   | 0.021504   | 0.021504   |   0.0 |  0.00
Comm    | 0.25358    | 0.25358    | 0.25358    |   0.0 |  0.04
Output  | 1.0801     | 1.0801     | 1.0801     |   0.0 |  0.17
Modify  | 10.245     | 10.245     | 10.245     |   0.0 |  1.57
Other   |            | 0.1635     |            |       |  0.02

Nlocal:              8 ave           8 max           8 min
Histogram: 1 0 0 0 0 0 0 0 0 0
Nghost:             94 ave          94 max          94 min
Histogram: 1 0 0 0 0 0 0 0 0 0
Neighs:              0 ave           0 max           0 min
Histogram: 1 0 0 0 0 0 0 0 0 0
FullNghs:           24 ave          24 max          24 min
Histogram: 1 0 0 0 0 0 0 0 0 0

Total # of neighbors = 24
Ave neighs/atom = 3
Neighbor list builds = 1120
Dangerous builds = 0
#
Total wall time: 0:10:56
