ITEM: TIMESTEP
0
ITEM: NUMBER OF ATOMS
8
ITEM: BOX BOUNDS xy xz yz pp pp pp
0.0000000000000000e+00 1.2000000000000000e+01 0.0000000000000000e+00
0.0000000000000000e+00 1.2000000000000000e+01 0.0000000000000000e+00
0.0000000000000000e+00 1.2000000000000000e+01 0.0000000000000000e+00
ITEM: ATOMS id type x y z
1 1 5.74046 6.33007 5.41224
2 2 7.13765 6.17173 7.19603
3 2 6.99131 4.6591 6.48592
4 2 5.76199 5.3298 7.42483
5 2 5.30281 7.3409 5.86648
6 2 4.86235 5.64183 4.93919
7 2 6.6291 6.51884 4.57517
8 3 6.45143 5.56858 6.69633
ITEM: TIMESTEP
100
ITEM: NUMBER OF ATOMS
8
ITEM: BOX BOUNDS xy xz yz pp pp pp
0.0000000000000000e+00 1.2000000000000000e+01 0.0000000000000000e+00
0.0000000000000000e+00 1.2000000000000000e+01 0.0000000000000000e+00
0.0000000000000000e+00 1.2000000000000000e+01 0.0000000000000000e+00
ITEM: ATOMS id type x y z
1 1 5.53339 6.24724 5.49772
2 2 7.49749 6.21305 6.63161
3 2 6.94192 4.61812 6.45794
4 2 6.28936 5.61439 7.60651
5 2 5.23569 7.35133 6.00691
6 2 4.60298 5.4461 5.46342
7 2 6.10876 6.23626 4.46309
8 3 6.61181 5.64555 6.62025
ITEM: TIMESTEP
200
ITEM: NUMBER OF ATOMS
8
ITEM: BOX BOUNDS xy xz yz pp pp pp
0.0000000000000000e+00 1.2000000000000000e+01 0.0000000000000000e+00
0.0000000000000000e+00 1.2000000000000000e+01 0.0000000000000000e+00
0.0000000000000000e+00 1.2000000000000000e+01 0.0000000000000000e+00
ITEM: ATOMS id type x y z
1 1 5.30732 6.101 5.72739
2 2 7.57038 6.29012 6.04798
3 2 7.10406 4.72576 6.33556
4 2 6.82907 5.95792 7.44858
5 2 5.26684 7.33335 5.80337
6 2 4.52681 5.46456 6.44543
7 2 5.62736 5.76685 4.5237
8 3 6.76847 5.75413 6.44486
ITEM: TIMESTEP
300
ITEM: NUMBER OF ATOMS
8
ITEM: BOX BOUNDS xy xz yz pp pp pp
0.0000000000000000e+00 1.2000000000000000e+01 0.0000000000000000e+00
0.0000000000000000e+00 1.2000000000000000e+01 0.0000000000000000e+00
0.0000000000000000e+00 1.2000000000000000e+01 0.0000000000000000e+00
ITEM: ATOMS id type x y z
1 1 5.25394 5.94289 6.06166
2 2 7.27221 6.18942 5.33646
3 2 7.158 4.89125 6.37234
4 2 7.30093 6.42728 6.89534
5 2 4.9395 7.03112 5.75523
6 2 4.83024 5.61606 7.1378
7 2 4.97552 5.16955 5.17959
8 3 6.84167 5.89137 6.18184
ITEM: TIMESTEP
400
ITEM: NUMBER OF ATOMS
8
ITEM: BOX BOUNDS xy xz yz pp pp pp
0.0000000000000000e+00 1.2000000000000000e+01 0.0000000000000000e+00
0.0000000000000000e+00 1.2000000000000000e+01 0.0000000000000000e+00
0.0000000000000000e+00 1.2000000000000000e+01 0.0000000000000000e+00
ITEM: ATOMS id type x y z
1 1 5.31308 5.83984 6.35786
2 2 6.9066 5.84247 4.95741
3 2 7.37134 5.19787 6.38948
4 2 7.26095 6.84468 6.2029
5 2 4.57633 6.81005 5.93061
6 2 5.18387 5.73802 7.5988
7 2 4.90898 4.77309 5.92322
8 3 6.8152 5.97933 5.93008
ITEM: TIMESTEP
500
ITEM: NUMBER OF ATOMS
8
ITEM: BOX BOUNDS xy xz yz pp pp pp
0.0000000000000000e+00 1.2000000000000000e+01 0.0000000000000000e+00
0.0000000000000000e+00 1.2000000000000000e+01 0.0000000000000000e+00
0.0000000000000000e+00 1.2000000000000000e+01 0.0000000000000000e+00
ITEM: ATOMS id type x y z
1 1 5.39786 5.76508 6.62449
2 2 6.55555 5.75072 4.77735
3 2 7.46569 5.38471 6.14671
4 2 7.03756 7.0121 5.72619
5 2 4.50933 6.352 6.08194
6 2 5.64641 6.251 7.70655
7 2 5.35778 4.51868 6.59471
8 3 6.72379 6.03251 5.72217
ITEM: TIMESTEP
600
ITEM: NUMBER OF ATOMS
8
ITEM: BOX BOUNDS xy xz yz pp pp pp
0.0000000000000000e+00 1.2000000000000000e+01 0.0000000000000000e+00
0.0000000000000000e+00 1.2000000000000000e+01 0.0000000000000000e+00
0.0000000000000000e+00 1.2000000000000000e+01 0.0000000000000000e+00
ITEM: ATOMS id type x y z
1 1 5.55703 5.73229 6.85462
2 2 6.36646 5.40358 4.79322
3 2 7.59275 5.89608 5.92757
4 2 6.5354 7.0478 5.20959
5 2 4.42733 5.9622 6.45993
6 2 6.02371 6.4429 7.73022
7 2 5.77707 4.53869 7.00499
8 3 6.59026 6.05622 5.53807
ITEM: TIMESTEP
700
ITEM: NUMBER OF ATOMS
8
ITEM: BOX BOUNDS xy xz yz pp pp pp
0.0000000000000000e+00 1.2000000000000000e+01 0.0000000000000000e+00
0.0000000000000000e+00 1.2000000000000000e+01 0.0000000000000000e+00
0.0000000000000000e+00 1.2000000000000000e+01 0.0000000000000000e+00
ITEM: ATOMS id type x y z
1 1 5.80184 5.73952 7.00278
2 2 6.26168 5.24428 4.81125
3 2 7.46699 6.15694 5.57177
4 2 5.99696 6.92435 5.00416
5 2 4.5406 5.50916 6.93849
6 2 6.11578 6.70103 7.7346
7 2 6.33763 4.71701 7.36232
8 3 6.40163 6.0534 5.40255
ITEM: TIMESTEP
800
ITEM: NUMBER OF ATOMS
8
ITEM: BOX BOUNDS xy xz yz pp pp pp
0.0000000000000000e+00 1.2000000000000000e+01 0.0000000000000000e+00
0.0000000000000000e+00 1.2000000000000000e+01 0.0000000000000000e+00
0.0000000000000000e+00 1.2000000000000000e+01 0.0000000000000000e+00
ITEM: ATOMS id type x y z
1 1 6.05866 5.76533 7.06373
2 2 6.07267 5.1378 4.9315
3 2 7.15955 6.4192 5.18696
4 2 5.46333 6.64108 4.98909
5 2 5.04692 5.26065 7.32847
6 2 6.13448 6.856 7.52218
7 2 7.07003 5.11778 7.31447
8 3 6.18726 6.02065 5.36625
ITEM: TIMESTEP
900
ITEM: NUMBER OF ATOMS
8
ITEM: BOX BOUNDS xy xz yz pp pp pp
0.0000000000000000e+00 1.2000000000000000e+01 0.0000000000000000e+00
0.0000000000000000e+00 1.2000000000000000e+01 0.0000000000000000e+00
0.0000000000000000e+00 1.2000000000000000e+01 0.0000000000000000e+00
ITEM: ATOMS id type x y z
1 1 6.36435 5.87526 6.98533
2 2 6.19967 5.13075 4.95982
3 2 6.48037 6.74035 5.01855
4 2 4.96962 6.13383 5.30467
5 2 5.48978 5.02181 7.36707
6 2 6.20817 7.05448 7.38199
7 2 7.57403 5.50673 6.86604
8 3 5.95325 5.92474 5.45348
ITEM: TIMESTEP
1000
ITEM: NUMBER OF ATOMS
8
ITEM: BOX BOUNDS xy xz yz pp pp pp
0.0000000000000000e+00 1.2000000000000000e+01 0.0000000000000000e+00
0.0000000000000000e+00 1.2000000000000000e+01 0.0000000000000000e+00
0.0000000000000000e+00 1.2000000000000000e+01 0.0000000000000000e+00
ITEM: ATOMS id type x y z
1 1 6.66241 5.98092 6.88174
2 2 5.94866 5.0504 5.00478
3 2 5.73925 6.65998 4.81302
4 2 4.72604 5.71732 5.75492
5 2 6.70003 4.91302 7.475
6 2 6.11818 6.89404 7.48263
7 2 7.7514 6.24813 6.5512
8 3 5.7189 5.85074 5.52029
ITEM: TIMESTEP
1100
ITEM: NUMBER OF ATOMS
8
ITEM: BOX BOUNDS xy xz yz pp pp pp
0.0000000000000000e+00 1.2000000000000000e+01 0.0000000000000000e+00
0.0000000000000000e+00 1.2000000000000000e+01 0.0000000000000000e+00
0.0000000000000000e+00 1.2000000000000000e+01 0.0000000000000000e+00
ITEM: ATOMS id type x y z
1 1 6.88156 6.14166 6.7176
2 2 5.7562 5.13715 4.86947
3 2 5.06501 6.61167 5.24907
4 2 4.79635 5.2078 6.16353
5 2 7.18044 5.05028 7.13093
6 2 6.43386 6.82041 7.61596
7 2 7.78845 6.66142 6.01349
8 3 5.54722 5.72632 5.64971
ITEM: TIMESTEP
1200
ITEM: NUMBER OF ATOMS
8
ITEM: BOX BOUNDS xy xz yz pp pp pp
0.0000000000000000e+00 1.2000000000000000e+01 0.0000000000000000e+00
0.0000000000000000e+00 1.2000000000000000e+01 0.0000000000000000e+00
0.0000000000000000e+00 1.2000000000000000e+01 0.0000000000000000e+00
ITEM: ATOMS id type x y z
1 1 6.95272 6.20552 6.49986
2 2 5.62222 5.19114 4.94724
3 2 4.70946 6.39906 5.62089
4 2 5.06876 4.98785 6.49111
5 2 7.55099 5.12428 6.71595
6 2 6.51337 6.75441 7.50654
7 2 7.36586 7.00622 5.66384
8 3 5.50587 5.6789 5.8246
ITEM: TIMESTEP
1300
ITEM: NUMBER OF ATOMS
8
ITEM: BOX BOUNDS xy xz yz pp pp pp
0.0000000000000000e+00 1.2000000000000000e+01 0.0000000000000000e+00
0.0000000000000000e+00 1.2000000000000000e+01 0.0000000000000000e+00
0.0000000000000000e+00 1.2000000000000000e+01 0.0000000000000000e+00
ITEM: ATOMS id type x y z
1 1 6.90417 6.28543 6.28803
2 2 5.44082 5.10783 5.11917
3 2 4.66336 6.29068 6.01531
4 2 5.34266 4.91575 6.7317
5 2 7.65596 5.37838 6.00738
6 2 6.89115 6.55168 7.47353
7 2 7.12055 7.21789 5.61909
8 3 5.52305 5.6173 5.98654
ITEM: TIMESTEP
1400
ITEM: NUMBER OF ATOMS
8
ITEM: BOX BOUNDS xy xz yz pp pp pp
0.0000000000000000e+00 1.2000000000000000e+01 0.0000000000000000e+00
0.0000000000000000e+00 1.2000000000000000e+01 0.0000000000000000e+00
0.0000000000000000e+00 1.2000000000000000e+01 0.0000000000000000e+00
ITEM: ATOMS id type x y z
1 1 6.96958 6.40318 6.0379
2 2 5.00415 5.3493 5.32782
3 2 4.72076 5.89635 6.87802
4 2 5.77787 4.61615 6.52998
5 2 7.80942 5.63457 5.60595
6 2 7.28393 6.71551 7.20079
7 2 6.84592 7.42183 5.22663
8 3 5.4492 5.51422 6.19356
ITEM: TIMESTEP
1500
ITEM: NUMBER OF ATOMS
8
ITEM: BOX BOUNDS xy xz yz pp pp pp
0.0000000000000000e+00 1.2000000000000000e+01 0.0000000000000000e+00
0.0000000000000000e+00 1.2000000000000000e+01 0.0000000000000000e+00
0.0000000000000000e+00 1.2000000000000000e+01 0.0000000000000000e+00
ITEM: ATOMS id type x y z
1 1 6.84339 6.50981 5.75985
2 2 4.88448 5.20809 5.7609
3 2 5.1213 5.88512 7.2614
4 2 6.051 4.62165 6.73712
5 2 7.17471 5.78893 4.83479
6 2 7.64846 6.49014 6.64163
7 2 6.31357 7.51346 5.51565
8 3 5.56429 5.44099 6.40933
ITEM: TIMESTEP
1600
ITEM: NUMBER OF ATOMS
8
ITEM: BOX BOUNDS xy xz yz pp pp pp
0.0000000000000000e+00 1.2000000000000000e+01 0.0000000000000000e+00
0.0000000000000000e+00 1.2000000000000000e+01 0.0000000000000000e+00
0.0000000000000000e+00 1.2000000000000000e+01 0.0000000000000000e+00
ITEM: ATOMS id type x y z
1 1 6.57799 6.43281 5.60245
2 2 4.96963 5.14592 6.09744
3 2 5.48723 5.93842 7.46712
4 2 6.37063 4.66242 6.68987
5 2 6.34892 6.09454 4.4299
6 2 7.74449 6.35163 6.04185
7 2 6.15037 7.57466 5.83083
8 3 5.77777 5.4818 6.54464
ITEM: TIMESTEP
1700
ITEM: NUMBER OF ATOMS
8
ITEM: BOX BOUNDS xy xz yz pp pp pp
0.0000000000000000e+00 1.2000000000000000e+01 0.0000000000000000e+00
0.0000000000000000e+00 1.2000000000000000e+01 0.0000000000000000e+00
0.0000000000000000e+00 1.2000000000000000e+01 0.0000000000000000e+00
ITEM: ATOMS id type x y z
1 1 6.35989 6.452 5.47559
2 2 5.0004 5.61797 6.97332
3 2 6.62321 5.60431 7.5041
4 2 6.06203 4.45475 6.40845
5 2 6.11288 5.91303 4.43223
6 2 7.56169 6.69035 5.49455
7 2 5.77067 7.58276 5.51378
8 3 5.94175 5.46017 6.65897
ITEM: TIMESTEP
1800
ITEM: NUMBER OF ATOMS
8
ITEM: BOX BOUNDS xy xz yz pp pp pp
0.0000000000000000e+00 1.2000000000000000e+01 0.0000000000000000e+00
0.0000000000000000e+00 1.2000000000000000e+01 0.0000000000000000e+00
0.0000000000000000e+00 1.2000000000000000e+01 0.0000000000000000e+00
ITEM: ATOMS id type x y z
1 1 6.13032 6.45451 5.35416
2 2 5.24852 5.50673 7.24048
3 2 6.89603 5.81466 7.46252
4 2 6.33917 4.48547 6.47759
5 2 5.29021 5.96738 4.61402
6 2 7.24349 6.31185 4.91172
7 2 5.87148 7.50069 5.81476
8 3 6.13613 5.47798 6.73874
ITEM: TIMESTEP
1900
ITEM: NUMBER OF ATOMS
8
ITEM: BOX BOUNDS xy xz yz pp pp pp
0.0000000000000000e+00 1.2000000000000000e+01 0.0000000000000000e+00
0.0000000000000000e+00 1.2000000000000000e+01 0.0000000000000000e+00
0.0000000000000000e+00 1.2000000000000000e+01 0.0000000000000000e+00
ITEM: ATOMS id type x y z
1 1 5.88125 6.4186 5.3145
2 2 5.57525 5.49248 7.42264
3 2 7.19541 5.9905 7.21036
4 2 6.57958 4.51868 6.5687
5 2 4.69976 6.0205 5.16668
6 2 6.77427 5.97526 4.55149
7 2 5.9697 7.59484 5.74646
8 3 6.33506 5.50528 6.75897
ITEM: TIMESTEP
2000
ITEM: NUMBER OF ATOMS
8
ITEM: BOX BOUNDS xy xz yz pp pp pp
0.0000000000000000e+00 1.2000000000000000e+01 0.0000000000000000e+00
0.0000000000000000e+00 1.2000000000000000e+01 0.0000000000000000e+00
0.0000000000000000e+00 1.2000000000000000e+01 0.0000000000000000e+00
ITEM: ATOMS id type x y z
1 1 5.72136 6.2684 5.45988
2 2 6.18142 5.99513 7.5354
3 2 7.51788 5.73979 6.60341
4 2 6.34022 4.59792 6.70374
5 2 4.63279 5.83803 5.41734
6 2 6.35721 6.14974 4.46575
7 2 5.74396 7.48055 5.6996
8 3 6.45986 5.60623 6.66403
ITEM: TIMESTEP
2100
ITEM: NUMBER OF ATOMS
8
ITEM: BOX BOUNDS xy xz yz pp pp pp
0.0000000000000000e+00 1.2000000000000000e+01 0.0000000000000000e+00
0.0000000000000000e+00 1.2000000000000000e+01 0.0000000000000000e+00
0.0000000000000000e+00 1.2000000000000000e+01 0.0000000000000000e+00
ITEM: ATOMS id type x y z
1 1 5.50697 6.24742 5.50409
2 2 6.44564 6.05679 7.48762
3 2 7.61681 5.96355 6.36203
4 2 6.6659 4.65567 6.79631
5 2 4.38678 5.91758 5.98235
6 2 5.64803 5.62068 4.45026
7 2 5.72688 7.4338 5.44486
8 3 6.64549 5.63335 6.62292
ITEM: TIMESTEP
2200
ITEM: NUMBER OF ATOMS
8
ITEM: BOX BOUNDS xy xz yz pp pp pp
0.0000000000000000e+00 1.2000000000000000e+01 0.0000000000000000e+00
0.0000000000000000e+00 1.2000000000000000e+01 0.0000000000000000e+00
0.0000000000000000e+00 1.2000000000000000e+01 0.0000000000000000e+00
ITEM: ATOMS id type x y z
1 1 5.2039 6.12155 5.65226
2 2 6.97742 6.3714 7.22838
3 2 7.70812 5.8474 5.83451
4 2 6.89168 4.80275 6.85066
5 2 4.47059 6.06201 6.67521
6 2 5.10114 5.16137 4.84887
7 2 5.4784 7.27084 5.38021
8 3 6.86948 5.7399 6.48758
ITEM: TIMESTEP
2300
ITEM: NUMBER OF ATOMS
8
ITEM: BOX BOUNDS xy xz yz pp pp pp
0.0000000000000000e+00 1.2000000000000000e+01 0.0000000000000000e+00
0.0000000000000000e+00 1.2000000000000000e+01 0.0000000000000000e+00
0.0000000000000000e+00 1.2000000000000000e+01 0.0000000000000000e+00
ITEM: ATOMS id type x y z
1 1 5.18119 5.96858 5.98819
2 2 7.1745 6.75066 6.58521
3 2 7.48992 5.64326 5.35218
4 2 7.14571 5.14159 6.94866
5 2 4.79545 6.11992 7.07441
6 2 4.88829 4.99384 5.39293
7 2 5.0508 6.98665 5.29349
8 3 6.89291 5.84932 6.24065
ITEM: TIMESTEP
2400
ITEM: NUMBER OF ATOMS
8
ITEM: BOX BOUNDS xy xz yz pp pp pp
0.0000000000000000e+00 1.2000000000000000e+01 0.0000000000000000e+00
0.0000000000000000e+00 1.2000000000000000e+01 0.0000000000000000e+00
0.0000000000000000e+00 1.2000000000000000e+01 0.0000000000000000e+00
ITEM: ATOMS id type x y z
1 1 5.31432 5.89567 6.17303
2 2 7.15326 6.8513 6.34385
3 2 7.23171 5.70008 5.0936
4 2 7.24945 5.28956 6.78024
5 2 5.00484 6.32788 7.34858
6 2 4.81192 4.75233 6.0654
7 2 4.84189 6.535 5.2241
8 3 6.80818 5.91841 6.08314
ITEM: TIMESTEP
2500
ITEM: NUMBER OF ATOMS
8
ITEM: BOX BOUNDS xy xz yz pp pp pp
0.0000000000000000e+00 1.2000000000000000e+01 0.0000000000000000e+00
0.0000000000000000e+00 1.2000000000000000e+01 0.0000000000000000e+00
0.0000000000000000e+00 1.2000000000000000e+01 0.0000000000000000e+00
ITEM: ATOMS id type x y z
1 1 5.17699 5.82609 6.35902
2 2 7.11298 6.96001 5.74992
3 2 7.19874 5.41626 5.04829
4 2 7.49639 5.60745 6.67278
5 2 5.14188 6.37328 7.43837
6 2 4.97456 4.63023 6.4752
7 2 4.59539 6.43041 5.53879
8 3 6.89792 5.97483 5.93483
ITEM: TIMESTEP
2600
ITEM: NUMBER OF ATOMS
8
ITEM: BOX BOUNDS xy xz yz pp pp pp
0.0000000000000000e+00 1.2000000000000000e+01 0.0000000000000000e+00
0.0000000000000000e+00 1.2000000000000000e+01 0.0000000000000000e+00
0.0000000000000000e+00 1.2000000000000000e+01 0.0000000000000000e+00
ITEM: ATOMS id type x y z
1 1 5.22331 5.75246 6.61814
2 2 6.95541 6.98801 5.46419
3 2 6.99524 5.41675 4.86765
4 2 7.59164 5.86502 6.40188
5 2 5.32229 6.6441 7.41771
6 2 5.38632 4.6062 6.97253
7 2 4.39705 6.02157 5.69217
8 3 6.85304 6.02278 5.7426
ITEM: TIMESTEP
2700
ITEM: NUMBER OF ATOMS
8
ITEM: BOX BOUNDS xy xz yz pp pp pp
0.0000000000000000e+00 1.2000000000000000e+01 0.0000000000000000e+00
0.0000000000000000e+00 1.2000000000000000e+01 0.0000000000000000e+00
0.0000000000000000e+00 1.2000000000000000e+01 0.0000000000000000e+00
ITEM: ATOMS id type x y z
1 1 5.48756 5.75956 6.73037
2 2 6.50969 6.9177 5.18427
3 2 6.74607 5.29719 4.87435
4 2 7.52567 6.04943 6.10392
5 2 5.46479 6.7939 7.45246
6 2 5.86185 4.75852 7.35597
7 2 4.48288 5.37663 6.1244
8 3 6.65326 6.04218 5.63608
ITEM: TIMESTEP
2800
ITEM: NUMBER OF ATOMS
8
ITEM: BOX BOUNDS xy xz yz pp pp pp
0.0000000000000000e+00 1.2000000000000000e+01 0.0000000000000000e+00
0.0000000000000000e+00 1.2000000000000000e+01 0.0000000000000000e+00
0.0000000000000000e+00 1.2000000000000000e+01 0.0000000000000000e+00
ITEM: ATOMS id type x y z
1 1 5.69292 5.7417 6.84559
2 2 5.93496 6.45056 4.80619
3 2 6.91116 5.14427 5.17207
4 2 7.24556 6.6707 5.69401
5 2 5.65558 6.73629 7.53117
6 2 6.29857 4.88064 7.45514
7 2 4.60689 5.41859 6.51595
8 3 6.49043 6.04827 5.54153
ITEM: TIMESTEP
2900
ITEM: NUMBER OF ATOMS
8
ITEM: BOX BOUNDS xy xz yz pp pp pp
0.0000000000000000e+00 1.2000000000000000e+01 0.0000000000000000e+00
0.0000000000000000e+00 1.2000000000000000e+01 0.0000000000000000e+00
0.0000000000000000e+00 1.2000000000000000e+01 0.0000000000000000e+00
ITEM: ATOMS id type x y z
1 1 5.82571 5.7244 7.08501
2 2 5.68823 6.5555 4.83178
3 2 6.55357 5.12474 4.89027
4 2 7.24043 6.58792 5.34364
5 2 5.31641 6.78616 7.40889
6 2 6.90499 5.42303 7.57885
7 2 4.89044 4.89425 6.81734
8 3 6.39218 6.05657 5.37854
ITEM: TIMESTEP
3000
ITEM: NUMBER OF ATOMS
8
ITEM: BOX BOUNDS xy xz yz pp pp pp
0.0000000000000000e+00 1.2000000000000000e+01 0.0000000000000000e+00
0.0000000000000000e+00 1.2000000000000000e+01 0.0000000000000000e+00
0.0000000000000000e+00 1.2000000000000000e+01 0.0000000000000000e+00
ITEM: ATOMS id type x y z
1 1 5.98682 5.76284 7.0868
2 2 5.35373 6.22647 4.89303
3 2 6.66239 5.14352 4.93003
4 2 6.90461 6.77717 5.13149
5 2 5.50632 6.80175 7.47016
6 2 7.07782 5.50089 7.52502
7 2 5.30986 4.77164 7.08891
8 3 6.25214 6.03764 5.36517
ITEM: TIMESTEP
3100
ITEM: NUMBER OF ATOMS
8
ITEM: BOX BOUNDS xy xz yz pp pp pp
0.0000000000000000e+00 1.2000000000000000e+01 0.0000000000000000e+00
0.0000000000000000e+00 1.2000000000000000e+01 0.0000000000000000e+00
0.0000000000000000e+00 1.2000000000000000e+01 0.0000000000000000e+00
ITEM: ATOMS id type x y z
1 1 6.15279 5.80902 6.9983
2 2 5.27102 5.53591 4.99805
3 2 6.96174 5.5046 4.95647
4 2 6.08757 6.9495 5.06983
5 2 5.83863 6.86774 7.57713
6 2 7.29896 5.45048 7.36065
7 2 5.38687 4.92154 7.28694
8 3 6.12195 6.00142 5.41841
ITEM: TIMESTEP
3200
ITEM: NUMBER OF ATOMS
8
ITEM: BOX BOUNDS xy xz yz pp pp pp
0.0000000000000000e+00 1.2000000000000000e+01 0.0000000000000000e+00
0.0000000000000000e+00 1.2000000000000000e+01 0.0000000000000000e+00
0.0000000000000000e+00 1.2000000000000000e+01 0.0000000000000000e+00
ITEM: ATOMS id type x y z
1 1 6.42337 5.86717 7.13853
2 2 4.99536 5.44446 5.22738
3 2 6.65371 5.42706 4.75555
4 2 5.88318 6.88733 4.97913
5 2 5.6432 6.64372 7.63958
6 2 7.55534 6.2718 7.00095
7 2 6.00813 4.68585 7.29988
8 3 5.92078 5.94725 5.33499
ITEM: TIMESTEP
3300
ITEM: NUMBER OF ATOMS
8
ITEM: BOX BOUNDS xy xz yz pp pp pp
0.0000000000000000e+00 1.2000000000000000e+01 0.0000000000000000e+00
0.0000000000000000e+00 1.2000000000000000e+01 0.0000000000000000e+00
0.0000000000000000e+00 1.2000000000000000e+01 0.0000000000000000e+00
ITEM: ATOMS id type x y z
1 1 6.60944 5.96487 6.95575
2 2 4.79905 5.49616 5.67771
3 2 6.25482 5.18573 4.8421
4 2 5.62849 6.7354 4.98637
5 2 5.75819 6.20198 7.76621
6 2 7.42769 6.8415 6.79434
7 2 7.20811 4.90117 6.98465
8 3 5.75314 5.87176 5.46535
ITEM: TIMESTEP
3400
ITEM: NUMBER OF ATOMS
8
ITEM: BOX BOUNDS xy xz yz pp pp pp
0.0000000000000000e+00 1.2000000000000000e+01 0.0000000000000000e+00
0.0000000000000000e+00 1.2000000000000000e+01 0.0000000000000000e+00
0.0000000000000000e+00 1.2000000000000000e+01 0.0000000000000000e+00
ITEM: ATOMS id type x y z
1 1 6.69138 6.04021 6.72971
2 2 5.14408 4.92398 5.81578
3 2 6.11181 5.70719 4.69439
4 2 5.02105 6.54638 5.56449
5 2 6.11057 6.3209 7.83042
6 2 7.51366 6.98256 6.50231
7 2 7.35793 5.03033 6.87358
8 3 5.67687 5.80297 5.62333
ITEM: TIMESTEP
3500
ITEM: NUMBER OF ATOMS
8
ITEM: BOX BOUNDS xy xz yz pp pp pp
0.0000000000000000e+00 1.2000000000000000e+01 0.0000000000000000e+00
0.0000000000000000e+00 1.2000000000000000e+01 0.0000000000000000e+00
0.0000000000000000e+00 1.2000000000000000e+01 0.0000000000000000e+00
ITEM: ATOMS id type x y z
1 1 6.93862 6.1548 6.72313
2 2 5.18979 4.76325 5.87638
3 2 5.73469 5.73966 4.65482
4 2 4.76122 6.35215 5.80334
5 2 6.39897 6.15295 7.79746
6 2 7.21731 7.20888 6.25965
7 2 7.63142 5.17916 6.59045
8 3 5.50941 5.7228 5.64975
ITEM: TIMESTEP
3600
ITEM: NUMBER OF ATOMS
8
ITEM: BOX BOUNDS xy xz yz pp pp pp
0.0000000000000000e+00 1.2000000000000000e+01 0.0000000000000000e+00
0.0000000000000000e+00 1.2000000000000000e+01 0.0000000000000000e+00
0.0000000000000000e+00 1.2000000000000000e+01 0.0000000000000000e+00
ITEM: ATOMS id type x y z
1 1 6.9602 6.20591 6.57088
2 2 5.20815 4.71681 6.08581
3 2 5.55827 5.64939 4.74288
4 2 4.71396 6.27399 6.00302
5 2 6.66041 6.01821 7.73796
6 2 7.07576 7.37997 6.23627
7 2 7.86218 5.48998 6.09657
8 3 5.48238 5.67392 5.77289
ITEM: TIMESTEP
3700
ITEM: NUMBER OF ATOMS
8
ITEM: BOX BOUNDS xy xz yz pp pp pp
0.0000000000000000e+00 1.2000000000000000e+01 0.0000000000000000e+00
0.0000000000000000e+00 1.2000000000000000e+01 0.0000000000000000e+00
0.0000000000000000e+00 1.2000000000000000e+01 0.0000000000000000e+00
ITEM: ATOMS id type x y z
1 1 6.90807 6.20698 6.44518
2 2 5.36843 4.6217 6.03832
3 2 5.36472 5.78536 4.84447
4 2 4.73092 6.14083 6.31375
5 2 6.8697 6.11037 7.69395
6 2 7.01634 7.42812 6.15789
7 2 7.85225 5.63098 5.94223
8 3 5.51376 5.65959 5.86356
ITEM: TIMESTEP
3800
ITEM: NUMBER OF ATOMS
8
ITEM: BOX BOUNDS xy xz yz pp pp pp
0.0000000000000000e+00 1.2000000000000000e+01 0.0000000000000000e+00
0.0000000000000000e+00 1.2000000000000000e+01 0.0000000000000000e+00
0.0000000000000000e+00 1.2000000000000000e+01 0.0000000000000000e+00
ITEM: ATOMS id type x y z
1 1 7.05352 6.32136 6.37937
2 2 5.36262 4.539 6.12809
3 2 5.18517 5.75153 4.92067
4 2 4.71114 6.05339 6.5003
5 2 7.04767 5.96525 7.51127
6 2 6.79329 7.45098 6.17175
7 2 7.80634 5.71222 5.69237
8 3 5.42271 5.58886 5.91906
ITEM: TIMESTEP
3900
ITEM: NUMBER OF ATOMS
8
ITEM: BOX BOUNDS xy xz yz pp pp pp
0.0000000000000000e+00 1.2000000000000000e+01 0.0000000000000000e+00
0.0000000000000000e+00 1.2000000000000000e+01 0.0000000000000000e+00
0.0000000000000000e+00 1.2000000000000000e+01 0.0000000000000000e+00
ITEM: ATOMS id type x y z
1 1 6.88226 6.2897 6.21164
2 2 5.62025 4.53529 6.21327
3 2 5.08548 5.76706 5.14187
4 2 4.93753 5.98941 6.80547
5 2 7.33755 5.90733 7.31765
6 2 6.58377 7.52331 6.16241
7 2 7.6205 5.92305 5.18511
8 3 5.53491 5.60092 6.0555
ITEM: TIMESTEP
4000
ITEM: NUMBER OF ATOMS
8
ITEM: BOX BOUNDS xy xz yz pp pp pp
0.0000000000000000e+00 1.2000000000000000e+01 0.0000000000000000e+00
0.0000000000000000e+00 1.2000000000000000e+01 0.0000000000000000e+00
0.0000000000000000e+00 1.2000000000000000e+01 0.0000000000000000e+00
ITEM: ATOMS id type x y z
1 1 6.9848 6.42474 6.01528
2 2 5.60071 4.4599 5.95984
3 2 4.75308 5.88367 5.60708
4 2 5.11933 5.56396 7.17355
5 2 7.69278 6.20273 6.96179
6 2 6.74559 7.60714 6.06347
7 2 7.50236 6.19103 5.02221
8 3 5.43947 5.47796 6.20967
ITEM: TIMESTEP
4100
ITEM: NUMBER OF ATOMS
8
ITEM: BOX BOUNDS xy xz yz pp pp pp
0.0000000000000000e+00 1.2000000000000000e+01 0.0000000000000000e+00
0.0000000000000000e+00 1.2000000000000000e+01 0.0000000000000000e+00
0.0000000000000000e+00 1.2000000000000000e+01 0.0000000000000000e+00
ITEM: ATOMS id type x y z
1 1 6.77556 6.41662 5.85963
2 2 5.79959 4.52398 6.0507
3 2 4.79317 5.82022 5.94354
4 2 5.56265 5.53542 7.35182
5 2 7.76073 5.87149 6.37058
6 2 6.37737 7.49966 6.25341
7 2 6.64807 6.18364 4.61791
8 3 5.63462 5.51809 6.34404
ITEM: TIMESTEP
4200
ITEM: NUMBER OF ATOMS
8
ITEM: BOX BOUNDS xy xz yz pp pp pp
0.0000000000000000e+00 1.2000000000000000e+01 0.0000000000000000e+00
0.0000000000000000e+00 1.2000000000000000e+01 0.0000000000000000e+00
0.0000000000000000e+00 1.2000000000000000e+01 0.0000000000000000e+00
ITEM: ATOMS id type x y z
1 1 6.7602 6.57074 5.57793
2 2 5.77958 4.42152 6.2006
3 2 4.70025 5.60149 6.41482
4 2 5.79183 5.34216 7.57766
5 2 7.8226 5.94351 5.52588
6 2 6.67321 7.60968 6.22942
7 2 6.11274 6.59283 4.45979
8 3 5.65085 5.39371 6.57419
ITEM: TIMESTEP
4300
ITEM: NUMBER OF ATOMS
8
ITEM: BOX BOUNDS xy xz yz pp pp pp
0.0000000000000000e+00 1.2000000000000000e+01 0.0000000000000000e+00
0.0000000000000000e+00 1.2000000000000000e+01 0.0000000000000000e+00
0.0000000000000000e+00 1.2000000000000000e+01 0.0000000000000000e+00
ITEM: ATOMS id type x y z
1 1 6.51315 6.4918 5.5274
2 2 5.63389 4.49619 6.16019
3 2 4.94499 5.76094 6.98988
4 2 6.37187 5.20024 7.45736
5 2 7.64273 6.14456 5.22124
6 2 6.69951 7.59501 6.0002
7 2 5.79493 6.49858 4.62631
8 3 5.82659 5.44144 6.60981
ITEM: TIMESTEP
4400
ITEM: NUMBER OF ATOMS
8
ITEM: BOX BOUNDS xy xz yz pp pp pp
0.0000000000000000e+00 1.2000000000000000e+01 0.0000000000000000e+00
0.0000000000000000e+00 1.2000000000000000e+01 0.0000000000000000e+00
0.0000000000000000e+00 1.2000000000000000e+01 0.0000000000000000e+00
ITEM: ATOMS id type x y z
1 1 6.43301 6.55362 5.38953
2 2 5.52393 4.53448 6.24216
3 2 5.15128 5.80316 7.23211
4 2 6.68247 5.11372 7.36278
5 2 7.40539 5.9038 4.98088
6 2 6.57521 7.55885 6.10037
7 2 5.37199 6.482 4.72316
8 3 5.91539 5.41515 6.70286
ITEM: TIMESTEP
4500
ITEM: NUMBER OF ATOMS
8
ITEM: BOX BOUNDS xy xz yz pp pp pp
0.0000000000000000e+00 1.2000000000000000e+01 0.0000000000000000e+00
0.0000000000000000e+00 1.2000000000000000e+01 0.0000000000000000e+00
0.0000000000000000e+00 1.2000000000000000e+01 0.0000000000000000e+00
ITEM: ATOMS id type x y z
1 1 6.26454 6.49914 5.37617
2 2 5.7163 4.46537 6.40676
3 2 5.37303 5.79669 7.39841
4 2 6.95102 5.2989 7.27518
5 2 6.87772 5.85082 4.57815
6 2 6.72727 7.51551 5.81061
7 2 5.07754 6.68614 4.99343
8 3 6.04445 5.44164 6.72595
ITEM: TIMESTEP
4600
ITEM: NUMBER OF ATOMS
8
ITEM: BOX BOUNDS xy xz yz pp pp pp
0.0000000000000000e+00 1.2000000000000000e+01 0.0000000000000000e+00
0.0000000000000000e+00 1.2000000000000000e+01 0.0000000000000000e+00
0.0000000000000000e+00 1.2000000000000000e+01 0.0000000000000000e+00
ITEM: ATOMS id type x y z
1 1 6.06983 6.42728 5.39639
2 2 5.65749 4.57182 6.58131
3 2 5.78772 5.96711 7.51267
4 2 7.19764 5.24208 6.90928
5 2 6.64547 5.88056 4.44908
6 2 6.82421 7.38981 5.59904
7 2 4.93148 6.68365 5.22255
8 3 6.17172 5.48839 6.72382
ITEM: TIMESTEP
4700
ITEM: NUMBER OF ATOMS
8
ITEM: BOX BOUNDS xy xz yz pp pp pp
0.0000000000000000e+00 1.2000000000000000e+01 0.0000000000000000e+00
0.0000000000000000e+00 1.2000000000000000e+01 0.0000000000000000e+00
0.0000000000000000e+00 1.2000000000000000e+01 0.0000000000000000e+00
ITEM: ATOMS id type x y z
1 1 5.85941 6.4671 5.27279
2 2 5.69426 4.69329 6.9354
3 2 6.30251 6.09857 7.53831
4 2 7.33659 5.201 6.59086
5 2 6.07548 5.5447 4.48307
6 2 6.68662 7.36336 5.48744
7 2 4.68281 6.63189 5.59361
8 3 6.35302 5.47212 6.79383
ITEM: TIMESTEP
4800
ITEM: NUMBER OF ATOMS
8
ITEM: BOX BOUNDS xy xz yz pp pp pp
0.0000000000000000e+00 1.2000000000000000e+01 0.0000000000000000e+00
0.0000000000000000e+00 1.2000000000000000e+01 0.0000000000000000e+00
0.0000000000000000e+00 1.2000000000000000e+01 0.0000000000000000e+00
ITEM: ATOMS id type x y z
1 1 5.7563 6.27504 5.48307
2 2 5.89652 4.7972 6.97241
3 2 6.61559 6.26788 7.34428
4 2 7.36447 5.22208 6.30639
5 2 5.4642 5.47667 4.64975
6 2 6.43287 7.19605 5.12816
7 2 4.68916 6.85169 5.86653
8 3 6.4551 5.60037 6.65741
ITEM: TIMESTEP
4900
ITEM: NUMBER OF ATOMS
8
ITEM: BOX BOUNDS xy xz yz pp pp pp
0.0000000000000000e+00 1.2000000000000000e+01 0.0000000000000000e+00
0.0000000000000000e+00 1.2000000000000000e+01 0.0000000000000000e+00
0.0000000000000000e+00 1.2000000000000000e+01 0.0000000000000000e+00
ITEM: ATOMS id type x y z
1 1 5.48798 6.26311 5.49619
2 2 6.18925 4.98813 7.32897
3 2 7.05059 6.37389 7.15689
4 2 7.41853 5.11864 6.13598
5 2 5.13274 5.29937 4.77454
6 2 6.12475 6.94741 4.6544
7 2 4.65347 6.83071 6.13025
8 3 6.65448 5.62767 6.65346
ITEM: TIMESTEP
5000
ITEM: NUMBER OF ATOMS
8
ITEM: BOX BOUNDS xy xz yz pp pp pp
0.0000000000000000e+00 1.2000000000000000e+01 0.0000000000000000e+00
0.0000000000000000e+00 1.2000000000000000e+01 0.0000000000000000e+00
0.0000000000000000e+00 1.2000000000000000e+01 0.0000000000000000e+00
ITEM: ATOMS id type x y z
1 1 5.3284 6.17485 5.5936
2 2 6.47244 5.19515 7.41546
3 2 7.30427 6.50074 6.845
4 2 7.40316 5.09057 5.95991
5 2 4.86194 5.05359 5.36587
6 2 5.96326 6.71328 4.69803
7 2 4.74671 6.80152 6.44181
8 3 6.76455 5.71028 6.53939
ITEM: TIMESTEP
5100
ITEM: NUMBER OF ATOMS
8
ITEM: BOX BOUNDS xy xz yz pp pp pp
0.0000000000000000e+00 1.2000000000000000e+01 0.0000000000000000e+00
0.0000000000000000e+00 1.2000000000000000e+01 0.0000000000000000e+00
0.0000000000000000e+00 1.2000000000000000e+01 0.0000000000000000e+00
ITEM: ATOMS id type x y z
1 1 5.28397 6.09171 5.703
2 2 6.72754 5.27612 7.38444
3 2 7.42344 6.56676 6.59892
4 2 7.40524 5.04447 5.90306
5 2 4.71195 5.05821 5.76387
6 2 5.54349 6.58052 4.65684
7 2 4.68088 6.9671 6.38245
8 3 6.81734 5.76454 6.4576
ITEM: TIMESTEP
5200
ITEM: NUMBER OF ATOMS
8
ITEM: BOX BOUNDS xy xz yz pp pp pp
0.0000000000000000e+00 1.2000000000000000e+01 0.0000000000000000e+00
0.0000000000000000e+00 1.2000000000000000e+01 0.0000000000000000e+00
0.0000000000000000e+00 1.2000000000000000e+01 0.0000000000000000e+00
ITEM: ATOMS id type x y z
1 1 5.08608 6.04967 5.81713
2 2 7.0318 5.62568 7.40362
3 2 7.5385 6.61721 6.20834
4 2 7.37878 4.99096 5.81796
5 2 4.64915 4.90395 5.91259
6 2 5.17723 6.31731 4.60379
7 2 4.72455 6.97423 6.51721
8 3 6.96947 5.80153 6.38571
ITEM: TIMESTEP
5300
ITEM: NUMBER OF ATOMS
8
ITEM: BOX BOUNDS xy xz yz pp pp pp
0.0000000000000000e+00 1.2000000000000000e+01 0.0000000000000000e+00
0.0000000000000000e+00 1.2000000000000000e+01 0.0000000000000000e+00
0.0000000000000000e+00 1.2000000000000000e+01 0.0000000000000000e+00
ITEM: ATOMS id type x y z
1 1 5.23607 5.96047 6.02655
2 2 7.05677 5.86475 7.20644
3 2 7.20508 6.69304 5.73746
4 2 7.22698 4.99043 5.7516
5 2 4.84648 4.86631 6.53591
6 2 5.15956 5.9264 4.7906
7 2 4.95298 6.88372 6.72297
8 3 6.85749 5.88495 6.20405
ITEM: TIMESTEP
5400
ITEM: NUMBER OF ATOMS
8
ITEM: BOX BOUNDS xy xz yz pp pp pp
0.0000000000000000e+00 1.2000000000000000e+01 0.0000000000000000e+00
0.0000000000000000e+00 1.2000000000000000e+01 0.0000000000000000e+00
0.0000000000000000e+00 1.2000000000000000e+01 0.0000000000000000e+00
ITEM: ATOMS id type x y z
1 1 5.18618 5.83523 6.19932
2 2 7.34976 5.96487 6.97193
3 2 7.08448 6.80206 5.56717
4 2 7.18868 5.10205 5.49313
5 2 5.0414 5.17387 7.18281
6 2 4.72069 5.59504 5.12625
7 2 4.8598 7.03264 6.43541
8 3 6.91047 5.94972 6.06851
ITEM: TIMESTEP
5500
ITEM: NUMBER OF ATOMS
8
ITEM: BOX BOUNDS xy xz yz pp pp pp
0.0000000000000000e+00 1.2000000000000000e+01 0.0000000000000000e+00
0.0000000000000000e+00 1.2000000000000000e+01 0.0000000000000000e+00
0.0000000000000000e+00 1.2000000000000000e+01 0.0000000000000000e+00
ITEM: ATOMS id type x y z
1 1 5.09421 5.78431 6.47612
2 2 7.4661 6.54255 6.55787
3 2 7.00297 6.51315 4.99257
4 2 7.44707 5.09013 5.696
5 2 5.15269 4.90138 7.28535
6 2 4.59303 5.3927 5.41549
7 2 4.76063 6.9387 6.69207
8 3 6.96874 6.00986 5.86479
ITEM: TIMESTEP
5600
ITEM: NUMBER OF ATOMS
8
ITEM: BOX BOUNDS xy xz yz pp pp pp
0.0000000000000000e+00 1.2000000000000000e+01 0.0000000000000000e+00