8
 Atoms. Timestep: 0
B 5.74046 6.33007 5.41224
H 7.13765 6.17173 7.19603
H 6.99131 4.6591 6.48592
H 5.76199 5.3298 7.42483
H 5.30281 7.3409 5.86648
H 4.86235 5.64183 4.93919
H 6.6291 6.51884 4.57517
N 6.45143 5.56858 6.69633
8
 Atoms. Timestep: 20
B 5.69942 6.32562 5.39379
H 7.20054 6.25354 7.02219
H 6.95627 4.62193 6.46718
H 5.77333 5.41264 7.41724
H 5.29615 7.37691 5.89573
H 4.80958 5.55428 5.18236
H 6.50569 6.55929 4.60884
N 6.49335 5.5637 6.70299
8
 Atoms. Timestep: 40
B 5.66241 6.30502 5.43497
H 7.33461 6.15337 7.02462
H 6.92489 4.63432 6.4036
H 5.92639 5.46258 7.51209
H 5.25996 7.36284 5.97867
H 4.76881 5.46897 5.16668
H 6.45972 6.41019 4.47979
N 6.51242 5.60005 6.67323
8
 Atoms. Timestep: 60
B 5.63281 6.26767 5.49901
H 7.42565 6.15281 6.86053
H 6.8228 4.64001 6.30803
H 6.01689 5.46577 7.52709
H 5.20816 7.34363 5.83874
H 4.71065 5.48926 5.22291
H 6.40917 6.36139 4.4657
N 6.54104 5.63168 6.64829
8
 Atoms. Timestep: 80
B 5.58601 6.25765 5.49852
H 7.43015 6.22456 6.68607
H 6.85682 4.64851 6.27897
H 6.14671 5.58519 7.57482
H 5.23416 7.33943 5.84154
H 4.72081 5.43731 5.47968
H 6.33519 6.34965 4.57892
N 6.56782 5.62999 6.63317
8
 Atoms. Timestep: 100
B 5.53339 6.24724 5.49772
H 7.49749 6.21305 6.63161
H 6.94192 4.61812 6.45794
H 6.28936 5.61439 7.60651
H 5.23569 7.35133 6.00691
H 4.60298 5.4461 5.46342
H 6.10876 6.23626 4.46309
N 6.61181 5.64555 6.62025
8
 Atoms. Timestep: 120
B 5.47852 6.21355 5.53018
H 7.53236 6.25064 6.55151
H 6.94613 4.61505 6.43316
H 6.24817 5.7913 7.53828
H 5.23997 7.36992 5.97588
H 4.45176 5.4936 5.55724
H 5.96676 6.25835 4.34566
N 6.67493 5.65014 6.61148
8
 Atoms. Timestep: 140
B 5.43284 6.20019 5.56136
H 7.56664 6.24562 6.43937
H 6.95093 4.6219 6.49835
H 6.36883 5.78532 7.5386
H 5.26792 7.31044 5.92019
H 4.56976 5.42502 5.8939
H 5.96415 6.19265 4.42148
N 6.68852 5.67458 6.56528
8
 Atoms. Timestep: 160
B 5.44193 6.17275 5.62367
H 7.58953 6.2103 6.30308
H 6.92944 4.66791 6.3283
H 6.57475 5.83857 7.54217
H 5.1928 7.30955 5.92768
H 4.57628 5.39645 5.93512
H 5.70834 5.92731 4.5129
N 6.68988 5.71224 6.52882
8
 Atoms. Timestep: 180
B 5.41312 6.11923 5.69739
H 7.54084 6.28325 6.10771
H 6.82736 4.68747 6.27335
H 6.64362 5.83633 7.50164
H 5.15397 7.37281 5.82192
H 4.44229 5.43544 6.09732
H 5.62939 5.83947 4.52455
N 6.73594 5.74605 6.48786
8
 Atoms. Timestep: 200
B 5.30732 6.101 5.72739
H 7.57038 6.29012 6.04798
H 7.10406 4.72576 6.33556
H 6.82907 5.95792 7.44858
H 5.26684 7.33335 5.80337
H 4.52681 5.46456 6.44543
H 5.62736 5.76685 4.5237
N 6.76847 5.75413 6.44486
8
 Atoms. Timestep: 220
B 5.27084 6.08986 5.7591
H 7.46773 6.36052 5.86909
H 7.17082 4.73948 6.39616
H 6.85335 6.07563 7.38622
H 5.18275 7.23891 5.86257
H 4.49826 5.52398 6.47051
H 5.12849 5.57257 4.65795
N 6.84113 5.76468 6.41769
8
 Atoms. Timestep: 240
B 5.23246 6.03313 5.82649
H 7.53744 6.30691 5.77206
H 7.16783 4.76732 6.36619
H 6.88668 6.18065 7.29093
H 5.15766 7.27575 5.79371
H 4.51612 5.56478 6.69889
H 5.04438 5.5593 4.77424
N 6.87011 5.79819 6.36188
8
 Atoms. Timestep: 260
B 5.21556 5.99922 5.91651
H 7.55389 6.24723 5.67817
H 7.13373 4.80866 6.40873
H 7.06926 6.2149 7.19403
H 5.14595 7.27221 5.72277
H 4.71077 5.55196 6.97245
H 5.21448 5.39629 4.83467
N 6.84615 5.83602 6.28424
8
 Atoms. Timestep: 280
B 5.28387 5.99312 5.98442
H 7.32335 6.19105 5.42535
H 7.01471 4.82014 6.29746
H 7.14306 6.34282 7.0761
H 4.90232 7.10814 5.7821
H 4.70546 5.53009 6.95964
H 4.97367 5.13446 5.08109
N 6.84813 5.86677 6.24535
8
 Atoms. Timestep: 300
B 5.25394 5.94289 6.06166
H 7.27221 6.18942 5.33646
H 7.158 4.89125 6.37234
H 7.30093 6.42728 6.89534
H 4.9395 7.03112 5.75523
H 4.83024 5.61606 7.1378
H 4.97552 5.16955 5.17959
N 6.84167 5.89137 6.18184
8
 Atoms. Timestep: 320
B 5.18295 5.90005 6.14129
H 7.24886 6.11501 5.22649
H 7.32249 4.97899 6.37471
H 7.20924 6.59356 6.77358
H 5.02701 7.10152 5.76414
H 4.91839 5.67965 7.32345
H 4.97822 5.11476 5.2839
N 6.88015 5.90594 6.11545
8
 Atoms. Timestep: 340
B 5.18932 5.88984 6.18879
H 7.14595 6.10384 5.12814
H 7.39676 5.05732 6.4467
H 7.18365 6.71508 6.60658
H 4.79376 7.05657 5.86417
H 4.88085 5.64824 7.3759
H 4.67133 4.95936 5.50909
N 6.92038 5.91689 6.06564
8
 Atoms. Timestep: 360
B 5.18546 5.86833 6.257
H 7.18189 5.95582 5.0787
H 7.43486 5.12808 6.40802
H 7.30022 6.75035 6.45682
H 4.80222 6.90646 5.86851
H 5.13925 5.70707 7.45149
H 4.74887 4.91919 5.55229
N 6.88514 5.94587 6.02122
8
 Atoms. Timestep: 380
B 5.23041 5.84538 6.321
H 7.04191 5.91009 5.00513
H 7.2651 5.13952 6.47581
H 7.26564 6.8083 6.31753
H 4.79543 6.87259 5.89949
H 5.23117 5.74953 7.51961
H 4.98585 4.87567 5.68962
N 6.85205 5.96438 5.96532
8
 Atoms. Timestep: 400
B 5.31308 5.83984 6.35786
H 6.9066 5.84247 4.95741
H 7.37134 5.19787 6.38948
H 7.26095 6.84468 6.2029
H 4.57633 6.81005 5.93061
H 5.18387 5.73802 7.5988
H 4.90898 4.77309 5.92322
N 6.8152 5.97933 5.93008
8
 Atoms. Timestep: 420
B 5.29187 5.81096 6.42857
H 6.83385 5.88986 4.91167
H 7.52222 5.29154 6.2657
H 7.21592 6.91137 6.03261
H 4.66936 6.74404 5.86233
H 5.42696 5.91257 7.66325
H 4.90235 4.67803 5.99809
N 6.80567 5.98581 5.89473
8
 Atoms. Timestep: 440
B 5.27002 5.78769 6.50697
H 6.76944 5.86133 4.84612
H 7.54544 5.34964 6.24985
H 7.05433 6.95736 6.06464
H 4.73372 6.64102 5.95501
H 5.42789 6.03641 7.65246
H 4.96924 4.6509 6.20031
N 6.82757 5.99881 5.81748
8
 Atoms. Timestep: 460
B 5.29551 5.77396 6.55619
H 6.8329 5.89057 4.78644
H 7.61166 5.4045 6.15191
H 7.10347 6.98279 5.90717
H 4.49976 6.54801 5.99233
H 5.42209 6.03863 7.74063
H 4.95189 4.64448 6.46331
N 6.8135 6.00852 5.77427
8
 Atoms. Timestep: 480
B 5.32539 5.76391 6.59706
H 6.67877 5.79128 4.78381
H 7.54776 5.39849 6.14968
H 7.13347 6.99061 5.82699
H 4.41524 6.45299 5.96256
H 5.683 6.17612 7.7431
H 5.13941 4.53878 6.50824
N 6.77788 6.02776 5.74756
8
 Atoms. Timestep: 500
B 5.39786 5.76508 6.62449
H 6.55555 5.75072 4.77735
H 7.46569 5.38471 6.14671
H 7.03756 7.0121 5.72619
H 4.50933 6.352 6.08194
H 5.64641 6.251 7.70655
H 5.35778 4.51868 6.59471
N 6.72379 6.03251 5.72217
8
 Atoms. Timestep: 520
B 5.46618 5.76861 6.65628
H 6.52299 5.72802 4.75016
H 7.59032 5.53527 5.99479
H 6.98778 7.02192 5.62573
H 4.5128 6.19535 6.14583
H 5.62423 6.2263 7.73177
H 5.3342 4.57816 6.78308
N 6.67108 6.02865 5.6978
8
 Atoms. Timestep: 540
B 5.4654 5.73908 6.72584
H 6.37847 5.67175 4.76637
H 7.63068 5.59739 5.92175
H 6.73773 7.07582 5.55771
H 4.42325 6.19753 6.09332
H 5.84549 6.39288 7.74286
H 5.41512 4.53028 6.86133
N 6.6818 6.03853 5.65043
8
 Atoms. Timestep: 560
B 5.47411 5.71759 6.79147
H 6.43793 5.60087 4.71247
H 7.67255 5.75341 5.86302
H 6.7246 7.0782 5.43815
H 4.43054 6.21735 6.26264
H 5.84688 6.44972 7.73715
H 5.53366 4.50581 6.98562
N 6.65969 6.04512 5.59582
8
 Atoms. Timestep: 580
B 5.51363 5.73786 6.83486
H 6.49906 5.53468 4.68859
H 7.62792 5.78602 5.89694
H 6.6348 7.06666 5.27818
H 4.4716 5.99971 6.44216
H 5.84861 6.34559 7.77949
H 5.57077 4.54326 7.06536
N 6.62874 6.05303 5.55152
8
 Atoms. Timestep: 600
B 5.55703 5.73229 6.85462
H 6.36646 5.40358 4.79322
H 7.59275 5.89608 5.92757
H 6.5354 7.0478 5.20959
H 4.42733 5.9622 6.45993
H 6.02371 6.4429 7.73022
H 5.77707 4.53869 7.00499
N 6.59026 6.05622 5.53807
8
 Atoms. Timestep: 620
B 5.63557 5.72051 6.84189
H 6.37032 5.36585 4.81573
H 7.60769 5.9497 5.73564
H 6.39509 6.98661 5.08652
H 4.4011 6.0209 6.51686
H 6.046 6.55082 7.72381
H 5.90571 4.54859 7.08811
N 6.52944 6.05594 5.55924
8
 Atoms. Timestep: 640
B 5.70952 5.7478 6.85596
H 6.28543 5.34549 4.81631
H 7.56825 6.11278 5.70235
H 6.18689 6.97941 5.16025
H 4.52919 5.83886 6.55874
H 6.02181 6.50298 7.74417
H 5.87429 4.60476 7.21963
N 6.49097 6.03762 5.53162
8
 Atoms. Timestep: 660
B 5.71597 5.73568 6.92876
H 6.29083 5.32121 4.79664
H 7.55392 6.15239 5.5487
H 6.04977 6.94692 5.16222
H 4.60781 5.80283 6.60366
H 6.11103 6.60977 7.62852
H 6.07725 4.60119 7.23165
N 6.46994 6.04339 5.49189
8
 Atoms. Timestep: 680
B 5.74704 5.7104 6.97784
H 6.26266 5.31585 4.77372
H 7.52229 6.20809 5.47202
H 6.0718 6.91785 4.98133
H 4.48434 5.76606 6.7921
H 6.13285 6.71184 7.63165
H 6.26939 4.65252 7.33899
N 6.44221 6.05304 5.45271
8
 Atoms. Timestep: 700
B 5.80184 5.73952 7.00278
H 6.26168 5.24428 4.81125
H 7.46699 6.15694 5.57177
H 5.99696 6.92435 5.00416
H 4.5406 5.50916 6.93849
H 6.11578 6.70103 7.7346
H 6.33763 4.71701 7.36232
N 6.40163 6.0534 5.40255
8
 Atoms. Timestep: 720
B 5.84121 5.74482 7.02668
H 6.18217 5.26748 4.78122
H 7.42621 6.22926 5.44312
H 5.94691 6.87096 4.94735
H 4.71483 5.49061 6.88001
H 6.10878 6.74957 7.59338
H 6.56307 4.80017 7.25221
N 6.35537 6.03821 5.42164
8
 Atoms. Timestep: 740
B 5.90629 5.74264 6.98177
H 6.11475 5.21924 4.88148
H 7.36769 6.22471 5.26481
H 5.78469 6.83978 5.04515
H 4.74439 5.45998 6.9614
H 6.07526 6.81258 7.53144
H 6.70039 4.86692 7.40146
N 6.31622 6.03882 5.44283
8
 Atoms. Timestep: 760
B 5.98937 5.77147 6.95186
H 6.01412 5.21223 4.90001
H 7.29106 6.32357 5.25319
H 5.64034 6.78323 5.15703
H 4.78358 5.28728 7.02612
H 6.06104 6.86963 7.57535
H 6.70916 4.92679 7.48052
N 6.27269 6.01803 5.44401
8
 Atoms. Timestep: 780
B 6.02658 5.7738 7.02869
H 6.09651 5.21517 4.82358
H 7.20027 6.35681 5.1359
H 5.5891 6.74881 5.08527
H 4.89051 5.28265 6.99909
H 6.09904 6.9115 7.48022
H 6.93155 5.0348 7.28344
N 6.22201 6.00574 5.4265
8
 Atoms. Timestep: 800
B 6.05866 5.76533 7.06373
H 6.07267 5.1378 4.9315
H 7.15955 6.4192 5.18696
H 5.46333 6.64108 4.98909
H 5.04692 5.26065 7.32847
H 6.13448 6.856 7.52218
H 7.07003 5.11778 7.31447
N 6.18726 6.02065 5.36625
8
 Atoms. Timestep: 820
B 6.11687 5.78778 7.08422
H 6.16848 5.11922 4.91835
H 7.06295 6.47716 5.10403
H 5.39752 6.58948 4.94281
H 5.13747 5.12535 7.44652
H 6.17126 6.91536 7.57503
H 7.14444 5.09922 7.32462
N 6.13271 6.01095 5.34768
8
 Atoms. Timestep: 840
B 6.18951 5.80462 7.11255
H 6.12902 5.14743 4.84766
H 6.91291 6.58525 5.0266
H 5.24977 6.43748 5.01638
H 5.10754 5.12152 7.22075
H 6.17325 6.99516 7.50328
H 7.24527 5.22142 7.14096
N 6.09556 5.98493 5.36552
8
 Atoms. Timestep: 860
B 6.24154 5.81293 7.04557
H 6.16196 5.0976 4.95967
H 6.7335 6.67096 4.93137
H 5.11868 6.33749 5.28031
H 5.2839 5.16306 7.421
H 6.1658 6.92464 7.50848
H 7.2934 5.31387 7.28316
N 6.05974 5.97856 5.37231
8
 Atoms. Timestep: 880
B 6.29301 5.83854 6.982
H 6.13429 5.12416 4.94514
H 6.55999 6.68922 4.86886
H 5.03425 6.17293 5.28811
H 5.49365 5.12221 7.44052
H 6.17985 6.95373 7.40398
H 7.39528 5.33664 7.27238
N 6.01717 5.96657 5.43313
8
 Atoms. Timestep: 900
B 6.36435 5.87526 6.98533
H 6.19967 5.13075 4.95982
H 6.48037 6.74035 5.01855
H 4.96962 6.13383 5.30467
H 5.48978 5.02181 7.36707
H 6.20817 7.05448 7.38199
H 7.57403 5.50673 6.86604
N 5.95325 5.92474 5.45348
8
 Atoms. Timestep: 920
B 6.42712 5.88768 6.97888
H 6.1675 5.10566 4.98393
H 6.39351 6.73864 4.97383
H 4.88349 6.00783 5.31579
H 5.86494 5.0016 7.71634
H 6.25212 6.99515 7.51324
H 7.5949 5.68019 6.86499
N 5.88806 5.91937 5.42489
8
 Atoms. Timestep: 940
B 6.5052 5.90421 7.01295
H 6.08819 5.11088 4.93929
H 6.15908 6.69944 4.79275
H 4.81529 5.95956 5.33754
H 6.13792 4.98328 7.62112
H 6.18291 6.97867 7.41401
H 7.68577 5.79183 6.84896
N 5.83407 5.907 5.4282
8
 Atoms. Timestep: 960
B 6.58853 5.94702 7.01401
H 6.00503 5.06081 4.95486
H 6.06963 6.73103 4.87273
H 4.79075 5.88065 5.64542
H 6.10026 4.92138 7.39566
H 6.09715 6.9726 7.44781
H 7.807 6.00081 6.66119
N 5.78402 5.87086 5.42568
8
 Atoms. Timestep: 980
B 6.6332 5.9824 6.93985
H 5.92407 5.05619 4.92239
H 5.84435 6.7012 4.80676
H 4.77248 5.8332 5.74889
H 6.35768 4.84375 7.53996
H 6.13205 6.90609 7.62448
H 7.85672 6.13337 6.72062
N 5.74831 5.85024 5.45536
8
 Atoms. Timestep: 1000
B 6.66241 5.98092 6.88174
H 5.94866 5.0504 5.00478
H 5.73925 6.65998 4.81302
H 4.72604 5.71732 5.75492
H 6.70003 4.91302 7.475
H 6.11818 6.89404 7.48263
H 7.7514 6.24813 6.5512
N 5.7189 5.85074 5.52029
8
 Atoms. Timestep: 1020
B 6.68501 6.0094 6.81355
H 6.03777 5.06799 5.05596
H 5.79022 6.72078 5.02456
H 4.70942 5.66219 5.8473
H 6.72123 4.95346 7.28233
H 6.16173 6.8656 7.47236
H 7.673 6.42222 6.21291
N 5.69362 5.81381 5.58619
8
 Atoms. Timestep: 1040
B 6.70637 6.05381 6.75647
H 5.92828 5.1042 4.95972
H 5.57385 6.68613 5.02458
H 4.6839 5.56048 5.88597
H 6.94666 4.94122 7.31743
H 6.30046 6.8316 7.62605
H 7.77394 6.48349 6.15189
N 5.66903 5.78563 5.62521
8
 Atoms. Timestep: 1060
B 6.7924 6.06514 6.75883
H 5.91361 5.07413 4.99533
H 5.29889 6.64822 5.04565
H 4.76739 5.40185 6.10767
H 7.13886 4.95205 7.27186
H 6.2519 6.88332 7.53028
H 7.73445 6.54773 6.16839
N 5.60995 5.78402 5.61242
8
 Atoms. Timestep: 1080
B 6.87136 6.10199 6.74981
H 5.87243 5.11288 4.93117
H 5.15159 6.61749 5.12767
H 4.83252 5.32881 6.22668
H 7.03767 5.00958 7.15493
H 6.27825 6.82977 7.49896
H 7.67607 6.62865 6.11016
N 5.56736 5.75418 5.62435
8
 Atoms. Timestep: 1100
B 6.88156 6.14166 6.7176
H 5.7562 5.13715 4.86947
H 5.06501 6.61167 5.24907
H 4.79635 5.2078 6.16353
H 7.18044 5.05028 7.13093
H 6.43386 6.82041 7.61596
H 7.78845 6.66142 6.01349
N 5.54722 5.72632 5.64971
8
 Atoms. Timestep: 1120
B 6.88535 6.13527 6.68203
H 5.86697 5.2319 4.87836
H 5.04028 6.6255 5.35292
H 4.83541 5.14382 6.21731
H 7.41371 5.06331 7.09818
H 6.4439 6.90983 7.5466
H 7.6806 6.72448 5.85258
N 5.52569 5.71624 5.68404
8
 Atoms. Timestep: 1140
B 6.89143 6.14162 6.61565
H 5.85389 5.25413 4.90378
H 4.99374 6.60504 5.44642
H 4.86965 5.05156 6.18952
H 7.37671 5.09072 7.03264
H 6.41136 6.87477 7.46247
H 7.45016 6.74577 5.78477
N 5.54423 5.71683 5.74428
8
 Atoms. Timestep: 1160
B 6.84282 6.16285 6.54524
H 5.76406 5.28945 4.8885
H 4.94042 6.56136 5.55354
H 4.93594 5.04415 6.31792
H 7.3929 5.17329 6.89799
H 6.53504 6.80335 7.52093
H 7.54126 6.76702 5.77447
N 5.57073 5.69926 5.78903
8
 Atoms. Timestep: 1180
B 6.86192 6.17401 6.51798
H 5.72155 5.20068 4.94314
H 4.84334 6.51432 5.64586
H 5.12095 5.00412 6.4739
H 7.48647 5.1389 6.76489
H 6.51612 6.80573 7.52753
H 7.57481 6.89661 5.70066
N 5.54502 5.69624 5.80273
8
 Atoms. Timestep: 1200
B 6.95272 6.20552 6.49986
H 5.62222 5.19114 4.94724
H 4.70946 6.39906 5.62089
H 5.06876 4.98785 6.49111
H 7.55099 5.12428 6.71595
H 6.51337 6.75441 7.50654
H 7.36586 7.00622 5.66384
N 5.50587 5.6789 5.8246
8
 Atoms. Timestep: 1220
B 6.97603 6.25002 6.47385
H 5.61552 5.17697 4.96043
H 4.81307 6.49805 5.70148
H 4.9923 4.94616 6.48398
H 7.70753 5.29189 6.57855
H 6.74458 6.71947 7.55968
H 7.37549 6.99068 5.6908
N 5.45804 5.63312 5.84257
8
 Atoms. Timestep: 1240
B 7.0006 6.26328 6.45741
H 5.57832 5.19676 4.96235
H 4.82371 6.49221 5.74167
H 4.94619 4.95244 6.51258
H 7.75388 5.34154 6.3852
H 6.78499 6.73844 7.56369
H 7.25894 7.10607 5.56592
N 5.44641 5.6083 5.87264
8
 Atoms. Timestep: 1260
B 7.01709 6.26635 6.40653
H 5.52372 5.14 5.02269
H 4.71115 6.39856 5.76812
H 5.01496 4.9124 6.54606
H 7.77712 5.30151 6.31263
H 6.74243 6.67049 7.53876
H 7.02483 7.22532 5.54315
N 5.45882 5.61873 5.91189
8
 Atoms. Timestep: 1280
B 6.94896 6.28139 6.34076
H 5.53966 5.13928 5.05751
H 4.69769 6.37425 5.88701
H 5.22673 4.93763 6.69967
H 7.82037 5.40828 6.19519
H 6.8912 6.56707 7.51807
H 7.21686 7.20247 5.6266
N 5.46864 5.60851 5.94458
8
 Atoms. Timestep: 1300
B 6.90417 6.28543 6.28803
H 5.44082 5.10783 5.11917
H 4.66336 6.29068 6.01531
H 5.34266 4.91575 6.7317
H 7.65596 5.37838 6.00738
H 6.89115 6.55168 7.47353
H 7.12055 7.21789 5.61909
N 5.52305 5.6173 5.98654
8
 Atoms. Timestep: 1320
B 6.91786 6.27953 6.23555
H 5.45003 5.19759 5.12455
H 4.6715 6.2703 6.15805
H 5.40289 4.84342 6.72346
H 7.7082 5.40216 5.94452
H 6.91292 6.57287 7.44497
H 6.82119 7.31449 5.4766
N 5.52304 5.61195 6.03374
8
 Atoms. Timestep: 1340
B 6.93904 6.31503 6.19628
H 5.35966 5.31354 5.12115
H 4.73758 6.30396 6.31815
H 5.356 4.73035 6.67905
H 7.89557 5.61467 5.84466
H 7.13274 6.67896 7.34893
H 6.86966 7.29779 5.38051
N 5.47924 5.56039 6.07687
8
 Atoms. Timestep: 1360
B 6.99663 6.38066 6.15109
H 5.14643 5.33687 5.19164
H 4.72131 6.18596 6.52451
H 5.33016 4.64203 6.62023
H 7.7798 5.54374 5.70633
H 7.11856 6.75982 7.28166
H 6.791 7.2376 5.40291
N 5.46796 5.52642 6.10924
8
 Atoms. Timestep: 1380
B 7.02367 6.41102 6.0856
H 5.10078 5.38084 5.23453
H 4.73061 6.0637 6.72569
H 5.62348 4.61788 6.60883
H 7.73196 5.51131 5.71137
H 7.13027 6.71 7.26643
H 6.70079 7.30123 5.34475
N 5.43777 5.51165 6.14802
8
 Atoms. Timestep: 1400
B 6.96958 6.40318 6.0379
H 5.00415 5.3493 5.32782
H 4.72076 5.89635 6.87802
H 5.77787 4.61615 6.52998
H 7.80942 5.63457 5.60595
H 7.28393 6.71551 7.20079
H 6.84592 7.42183 5.22663
N 5.4492 5.51422 6.19356
8
 Atoms. Timestep: 1420
B 6.92835 6.41253 5.99902
H 4.93553 5.3945 5.43313
H 4.85978 5.86789 6.99964
H 5.75337 4.57994 6.53103
H 7.61931 5.56159 5.43092
H 7.23994 6.74005 7.11959
H 6.66013 7.38138 5.26299
N 5.50771 5.51475 6.22298
8
 Atoms. Timestep: 1440
B 6.85028 6.39767 5.94804
H 4.98906 5.52197 5.47868
H 5.06392 6.02002 7.05027
H 5.78615 4.5649 6.51222
H 7.57848 5.63023 5.32464
H 7.29697 6.69536 7.0258
H 6.3942 7.26335 5.36301
N 5.56503 5.51403 6.26393
8
 Atoms. Timestep: 1460
B 6.8064 6.37073 5.89522
H 4.95081 5.47871 5.57993
H 5.06597 5.93916 7.12654
H 5.73833 4.55489 6.60577
H 7.60055 5.88576 5.12204
H 7.45114 6.70313 6.90856
H 6.2895 7.39801 5.342
N 5.59977 5.51597 6.30966
8
 Atoms. Timestep: 1480
B 6.84636 6.43676 5.82829
H 4.89641 5.33285 5.68701
H 5.11189 5.95976 7.17835
H 5.89986 4.55364 6.64838
H 7.33054 5.79265 4.89022
H 7.50184 6.65499 6.86353
H 6.23298 7.52899 5.43126
N 5.57772 5.4748 6.36029
8
 Atoms. Timestep: 1500
B 6.84339 6.50981 5.75985
H 4.88448 5.20809 5.7609
H 5.1213 5.88512 7.2614
H 6.051 4.62165 6.73712
H 7.17471 5.78893 4.83479
H 7.64846 6.49014 6.64163
H 6.31357 7.51346 5.51565
N 5.56429 5.44099 6.40933
8
 Atoms. Timestep: 1520
B 6.82043 6.51832 5.69748
H 4.90711 5.10132 5.84926
H 5.0292 5.79699 7.30042
H 6.06681 4.59732 6.76021
H 7.12196 5.99612 4.63729
H 7.75513 6.45613 6.46947
H 6.35231 7.5764 5.55933
N 5.57922 5.43321 6.46998
8
 Atoms. Timestep: 1540
B 6.79612 6.50389 5.647
H 4.95447 5.1466 5.84421
H 5.1361 5.89187 7.32145
H 6.10942 4.62789 6.87212
H 6.83829 6.05098 4.50818
H 7.77646 6.44971 6.42909
H 6.19127 7.66255 5.7302
N 5.61415 5.42254 6.49969
8
 Atoms. Timestep: 1560
B 6.72665 6.50213 5.64442
H 4.93633 5.13013 5.94347
H 5.2574 6.04289 7.2648
H 6.09199 4.59683 6.89758
H 6.67362 6.03602 4.52919
H 7.82915 6.37753 6.15189
H 6.10085 7.59516 5.81553
N 5.67607 5.42754 6.50901
8
 Atoms. Timestep: 1580
B 6.63248 6.45864 5.64389
H 4.9365 5.16276 6.02884
H 5.36385 5.96547 7.37535
H 6.1718 4.64016 6.93528
H 6.57873 6.14647 4.46995
H 7.76712 6.41232 5.97655
H 6.20746 7.50767 5.7946
N 5.739 5.45707 6.51099
8
 Atoms. Timestep: 1600
B 6.57799 6.43281 5.60245
H 4.96963 5.14592 6.09744
H 5.48723 5.93842 7.46712
H 6.37063 4.66242 6.68987
H 6.34892 6.09454 4.4299
H 7.74449 6.35163 6.04185
H 6.15037 7.57466 5.83083
N 5.77777 5.4818 6.54464
8
 Atoms. Timestep: 1620
B 6.55486 6.48194 5.5536
H 4.88923 5.16969 6.29982
H 5.71771 5.80343 7.59575
H 6.39597 4.63332 6.67884
H 6.30242 5.95736 4.47799
H 7.76977 6.31039 5.83517
H 6.03946 7.66934 5.75508
N 5.79251 5.4599 6.57621
8
 Atoms. Timestep: 1640
B 6.52675 6.509 5.50171
H 4.85041 5.27444 6.478
H 5.89978 5.8149 7.63834
H 6.2569 4.49103 6.56921
H 6.27987 6.03057 4.43113
H 7.7026 6.52768 5.66191
H 6.05421 7.60999 5.60854
N 5.81926 5.42438 6.63449
8
 Atoms. Timestep: 1660
B 6.49104 6.5084 5.44146
H 4.86753 5.48855 6.58035
H 6.17316 5.71674 7.65975
H 6.18736 4.45615 6.53533
H 6.1491 6.0094 4.37018
H 7.65023 6.60122 5.74979
H 5.88811 7.47037 5.6996
N 5.85596 5.42529 6.66612
8
 Atoms. Timestep: 1680
B 6.43421 6.4993 5.43377
H 4.91862 5.5459 6.82943
H 6.35671 5.69037 7.62543
H 6.03192 4.422 6.4835
H 6.16505 5.90094 4.37407
H 7.68061 6.59775 5.64066
H 5.69405 7.49213 5.74178
N 5.9047 5.43897 6.66491
8
 Atoms. Timestep: 1700
B 6.35989 6.452 5.47559
H 5.0004 5.61797 6.97332
H 6.62321 5.60431 7.5041
H 6.06203 4.45475 6.40845
H 6.11288 5.91303 4.43223
H 7.56169 6.69035 5.49455
H 5.77067 7.58276 5.51378
N 5.94175 5.46017 6.65897
8
 Atoms. Timestep: 1720
B 6.3108 6.4434 5.44531
H 5.08706 5.59344 7.10132
H 6.72642 5.56885 7.47636
H 6.0205 4.5263 6.27206
H 5.92019 5.82952 4.48169
H 7.48446 6.57977 5.57043
H 5.69047 7.43067 5.6216
N 5.99404 5.49071 6.66826
8
 Atoms. Timestep: 1740
B 6.26652 6.46561 5.40632
H 5.134 5.61939 7.15514
H 6.81516 5.54044 7.46256
H 6.05477 4.47492 6.3968
H 5.81459 5.81309 4.43357
H 7.5055 6.56844 5.32215
H 5.6457 7.43801 5.70417
N 6.02529 5.47888 6.70184
8
 Atoms. Timestep: 1760
B 6.22844 6.46697 5.37693
H 5.18462 5.67483 7.18049
H 6.83519 5.70716 7.46777
H 6.07445 4.40919 6.54203
H 5.62448 5.93635 4.43923
H 7.42224 6.67345 5.05942
H 5.71462 7.60779 5.65722
N 6.06282 5.43822 6.73367
8
 Atoms. Timestep: 1780
B 6.18174 6.47249 5.32694
H 5.19757 5.61402 7.16814
H 6.89025 5.71455 7.46602
H 6.18859 4.42166 6.59331
H 5.40463 5.96306 4.59698
H 7.35862 6.45711 5.10248
H 5.73694 7.5129 5.861
N 6.10449 5.45721 6.74068
8
 Atoms. Timestep: 1800
B 6.13032 6.45451 5.35416
H 5.24852 5.50673 7.24048
H 6.89603 5.81466 7.46252
H 6.33917 4.48547 6.47759
H 5.29021 5.96738 4.61402
H 7.24349 6.31185 4.91172
H 5.87148 7.50069 5.81476
N 6.13613 5.47798 6.73874
8
 Atoms. Timestep: 1820
B 6.08642 6.40773 5.42037
H 5.29647 5.38077 7.23247
H 6.94243 5.89618 7.39053
H 6.48001 4.5429 6.44317
H 5.11051 6.00661 4.71918
H 7.12947 6.26828 4.73728
H 6.01079 7.60852 5.63618
N 6.16423 5.50574 6.71355
8
 Atoms. Timestep: 1840
B 6.03403 6.38852 5.40261
H 5.34689 5.40411 7.21032
H 6.91297 5.94681 7.43004
H 6.57671 4.57885 6.44138
H 4.94567 6.0285 4.98982
H 7.04773 6.0279 4.77697
H 6.01605 7.61287 5.81197
N 6.21348 5.52801 6.69141
8
 Atoms. Timestep: 1860
B 5.98608 6.38821 5.37614
H 5.38108 5.41358 7.21704
H 6.98814 6.00467 7.38143
H 6.59711 4.55542 6.51891
H 4.90693 6.09234 4.9844
H 6.80475 6.10955 4.55177
H 6.04239 7.52582 5.79169
N 6.25944 5.52093 6.7272
8
 Atoms. Timestep: 1880
B 5.9405 6.40504 5.34693
H 5.49093 5.47415 7.36751
H 7.06051 6.01893 7.32818
H 6.64215 4.52492 6.62231
H 4.77654 6.09279 5.03159
H 6.72053 6.20939 4.43578
H 6.03792 7.53467 5.64316
N 6.29402 5.49699 6.75093
8
 Atoms. Timestep: 1900
B 5.88125 6.4186 5.3145
H 5.57525 5.49248 7.42264
H 7.19541 5.9905 7.21036
H 6.57958 4.51868 6.5687
H 4.69976 6.0205 5.16668
H 6.77427 5.97526 4.55149
H 5.9697 7.59484 5.74646
N 6.33506 5.50528 6.75897
8
 Atoms. Timestep: 1920
B 5.83091 6.3954 5.32863
H 5.70255 5.55646 7.52738
H 7.31799 5.88255 7.14504
H 6.51508 4.55925 6.44303
H 4.73492 6.0099 5.07327
H 6.63557 6.0018 4.49403
H 5.93557 7.60977 5.6579
N 6.37048 5.52122 6.77133
8
 Atoms. Timestep: 1940
B 5.80728 6.3772 5.34771
H 5.83492 5.58332 7.59748
H 7.40308 5.82571 7.01739
H 6.41153 4.54104 6.52287
H 4.70741 5.96083 5.17372
H 6.55254 6.12786 4.46639
H 5.85745 7.54428 5.53698
N 6.39405 5.53788 6.75845
8
 Atoms. Timestep: 1960
B 5.78848 6.36293 5.38096
H 5.92078 5.82892 7.5465
H 7.44464 5.81333 6.86411
H 6.38851 4.54195 6.59373
H 4.63326 5.83611 5.36151
H 6.58756 5.99989 4.49997
H 5.75328 7.51477 5.70758
N 6.41133 5.55232 6.71434
8
 Atoms. Timestep: 1980
B 5.76861 6.29202 5.46384
H 6.00498 5.93437 7.5
H 7.48605 5.79671 6.74495
H 6.2877 4.58728 6.69593
H 4.61751 5.83734 5.27254
H 6.44371 6.05771 4.41466
H 5.75842 7.52144 5.78702
N 6.43592 5.59274 6.66171
8
 Atoms. Timestep: 2000
B 5.72136 6.2684 5.45988
H 6.18142 5.99513 7.5354
H 7.51788 5.73979 6.60341
H 6.34022 4.59792 6.70374
H 4.63279 5.83803 5.41734
H 6.35721 6.14974 4.46575
H 5.74396 7.48055 5.6996
N 6.45986 5.60623 6.66403
8
 Atoms. Timestep: 2020
B 5.65402 6.31389 5.41378
H 6.31214 5.961 7.58579
H 7.54258 5.76927 6.49241
H 6.34504 4.59977 6.7392
H 4.5689 5.78055 5.55435
H 6.31209 5.93588 4.4752
H 5.61527 7.4622 5.67792
N 6.51734 5.59203 6.69248
8
 Atoms. Timestep: 2040
B 5.58436 6.31728 5.41581
H 6.39348 5.95849 7.60448
H 7.61747 5.69928 6.53045
H 6.41361 4.60524 6.71499
H 4.42123 5.76699 5.5132
H 6.13677 5.84112 4.36661
H 5.62146 7.53383 5.55714
N 6.57765 5.59682 6.70792
8
 Atoms. Timestep: 2060
B 5.51338 6.28627 5.39929
H 6.41393 5.95939 7.59826
H 7.65423 5.76638 6.51944
H 6.43564 4.62237 6.74124
H 4.40918 5.88758 5.73792
H 6.03065 5.91737 4.3501
H 5.7169 7.51411 5.50272
N 6.62837 5.60201 6.70903
8
 Atoms. Timestep: 2080
B 5.49781 6.27848 5.41594
H 6.42179 6.03988 7.53452
H 7.64189 5.84375 6.44096
H 6.60056 4.61966 6.77652
H 4.51244 5.93897 5.89865
H 5.82486 5.7315 4.44005
H 5.68277 7.45909 5.58981
N 6.63868 5.61047 6.6797
8
 Atoms. Timestep: 2100
B 5.50697 6.24742 5.50409
H 6.44564 6.05679 7.48762
H 7.61681 5.96355 6.36203
H 6.6659 4.65567 6.79631
H 4.38678 5.91758 5.98235
H 5.64803 5.62068 4.45026
H 5.72688 7.4338 5.44486
N 6.64549 5.63335 6.62292
8
 Atoms. Timestep: 2120
B 5.51004 6.16612 5.60603
H 6.51059 6.05227 7.46143
H 7.60678 5.96554 6.2328
H 6.64967 4.69659 6.62484
H 4.35083 6.06581 6.1847
H 5.67937 5.5727 4.47996
H 5.80464 7.34017 5.34159
N 6.63514 5.69285 6.55843
8
 Atoms. Timestep: 2140
B 5.48817 6.15053 5.62748
H 6.67288 6.03874 7.44708
H 7.56206 6.02711 6.07904
H 6.66627 4.71982 6.5769
H 4.53534 6.0362 6.31038
H 5.52207 5.32798 4.7427
H 5.69012 7.34492 5.38649
N 6.64866 5.71904 6.52636
8
 Atoms. Timestep: 2160
B 5.39292 6.16166 5.63708
H 6.75962 6.1475 7.39713
H 7.63015 5.9817 6.01613
H 6.78198 4.72 6.65319
H 4.48431 5.9774 6.37182
H 5.27734 5.35289 4.78643
H 5.50737 7.28384 5.19727
N 6.737 5.7127 6.52757
8
 Atoms. Timestep: 2180
B 5.27466 6.13346 5.65116
H 6.84057 6.24655 7.32757
H 7.72898 5.92361 5.98246
H 6.81183 4.75829 6.78117
H 4.38209 6.09811 6.60765
H 5.22717 5.3383 4.66756
H 5.50082 7.24494 5.2055
N 6.82461 5.724 6.506
8
 Atoms. Timestep: 2200
B 5.2039 6.12155 5.65226
H 6.97742 6.3714 7.22838
H 7.70812 5.8474 5.83451
H 6.89168 4.80275 6.85066
H 4.47059 6.06201 6.67521
H 5.10114 5.16137 4.84887
H 5.4784 7.27084 5.38021
N 6.86948 5.7399 6.48758
8
 Atoms. Timestep: 2220
B 5.22765 6.09363 5.73862
H 7.12777 6.45823 7.09031
H 7.5817 5.7966 5.6527
H 6.96148 4.87083 6.91521
H 4.52613 5.96164 6.61584
H 5.00238 5.25285 4.94947
H 5.29796 7.19686 5.20694
N 6.86044 5.75992 6.44863
8
 Atoms. Timestep: 2240
B 5.27072 6.04644 5.83247
H 7.17739 6.54227 6.93411
H 7.46362 5.68498 5.5141
H 6.87706 4.93883 6.91001
H 4.52105 6.0216 6.81007
H 5.17221 5.18536 4.98581
H 5.27863 7.12751 5.23239
N 6.82775 5.79893 6.37938
8
 Atoms. Timestep: 2260
B 5.33515 6.00789 5.89363
H 7.2142 6.59806 6.78933
H 7.41963 5.61779 5.45817
H 6.85649 5.02216 6.91912
H 4.59254 6.0077 6.98519
H 5.12167 4.95427 5.18095
H 5.31428 7.12596 5.41154
N 6.77599 5.84114 6.30664
8
 Atoms. Timestep: 2280
B 5.29919 5.99472 5.94252
H 7.15402 6.70356 6.66602
H 7.41336 5.63877 5.38673
H 7.00176 5.09924 6.96534
H 4.78182 5.9512 7.0288
H 4.8669 5.05655 5.30106
H 5.10279 6.99049 5.28304
N 6.81788 5.84317 6.27702
8
 Atoms. Timestep: 2300
B 5.18119 5.96858 5.98819
H 7.1745 6.75066 6.58521
H 7.48992 5.64326 5.35218
H 7.14571 5.14159 6.94866
H 4.79545 6.11992 7.07441
H 4.88829 4.99384 5.39293
H 5.0508 6.98665 5.29349
N 6.89291 5.84932 6.24065
8
 Atoms. Timestep: 2320
B 5.10458 5.95013 6.0138
H 7.30921 6.75383 6.54011
H 7.45714 5.63624 5.27217
H 7.21204 5.16076 6.9115
H 4.69219 6.19738 7.20003
H 4.8635 4.81291 5.58478
H 5.07708 6.96462 5.32026
N 6.94726 5.87143 6.20789
8
 Atoms. Timestep: 2340
B 5.11 5.95277 6.05668
H 7.38833 6.77074 6.46253
H 7.32047 5.6312 5.19518
H 7.26819 5.13592 6.82514
H 4.70636 6.14713 7.2418
H 4.77703 4.8059 5.66819
H 4.89489 6.74594 5.18058
N 6.96135 5.89002 6.19306
8
 Atoms. Timestep: 2360
B 5.14947 5.92625 6.10104
H 7.36574 6.77517 6.42914
H 7.24526 5.66164 5.1456
H 7.27262 5.17577 6.80161
H 4.85732 6.29275 7.17062
H 4.94987 4.78906 5.79055
H 4.85628 6.70839 5.23088
N 6.91721 5.89863 6.1592
8
 Atoms. Timestep: 2380
B 5.22766 5.90098 6.14205
H 7.23833 6.82426 6.38956
H 7.28693 5.65785 5.1394
H 7.2021 5.18581 6.75888
H 4.91626 6.33137 7.21837
H 4.96104 4.73193 6.00406
H 4.93497 6.72752 5.25236
N 6.85742 5.91413 6.11369
8
 Atoms. Timestep: 2400
B 5.31432 5.89567 6.17303
H 7.15326 6.8513 6.34385
H 7.23171 5.70008 5.0936
H 7.24945 5.28956 6.78024
H 5.00484 6.32788 7.34858
H 4.81192 4.75233 6.0654
H 4.84189 6.535 5.2241
N 6.80818 5.91841 6.08314
8
 Atoms. Timestep: 2420
B 5.24425 5.87709 6.21004
H 7.14933 6.89818 6.19003
H 7.14826 5.63455 5.0528
H 7.36203 5.30291 6.70432
H 5.10243 6.43355 7.30478
H 4.98248 4.66378 6.12012
H 4.80906 6.56131 5.32934
N 6.84362 5.93002 6.06561
8
 Atoms. Timestep: 2440
B 5.17816 5.86041 6.26837
H 7.29695 6.88969 6.08186
H 7.124 5.55932 5.02221
H 7.41006 5.39247 6.72146
H 4.93098 6.33043 7.30476
H 4.98007 4.69074 6.2559
H 4.76425 6.54753 5.35769
N 6.89799 5.94889 6.01758
8
 Atoms. Timestep: 2460
B 5.14816 5.85792 6.31874
H 7.30874 6.91667 5.92778
H 7.13307 5.47299 5.03413
H 7.42972 5.40989 6.69191
H 4.92428 6.30433 7.44101
H 4.9089 4.66605 6.23954
H 4.63228 6.39004 5.30757
N 6.93322 5.96868 5.98601
8
 Atoms. Timestep: 2480
B 5.11822 5.83138 6.33548
H 7.25395 6.937 5.86159
H 7.09267 5.44818 5.02024
H 7.50204 5.56032 6.70833
H 5.14254 6.44801 7.44981
H 5.05578 4.58105 6.31131
H 4.58986 6.47997 5.43663
N 6.9349 5.96812 5.96266
8
 Atoms. Timestep: 2500
B 5.17699 5.82609 6.35902
H 7.11298 6.96001 5.74992
H 7.19874 5.41626 5.04829
H 7.49639 5.60745 6.67278
H 5.14188 6.37328 7.43837
H 4.97456 4.63023 6.4752
H 4.59539 6.43041 5.53879
N 6.89792 5.97483 5.93483
8
 Atoms. Timestep: 2520
B 5.27011 5.82377 6.40562
H 7.0193 6.96524 5.71347
H 7.13012 5.39994 5.03052
H 7.43964 5.76781 6.69891
H 5.18864 6.35434 7.44873
H 4.93978 4.67972 6.46156
H 4.62849 6.30381 5.47298
N 6.83851 5.97282 5.90583
8
 Atoms. Timestep: 2540
B 5.34819 5.80722 6.40584
H 6.9222 6.93421 5.56043
H 6.97703 5.32655 5.07168
H 7.49631 5.74449 6.57986
H 5.3117 6.50017 7.46127
H 5.20211 4.57731 6.5148
H 4.6211 6.37662 5.51151
N 6.7651 5.98641 5.9147
8
 Atoms. Timestep: 2560
B 5.34075 5.80412 6.44127
H 6.97218 6.93041 5.50358
H 6.83615 5.31142 5.03584
H 7.52264 5.81127 6.53194
H 5.25507 6.44685 7.52523
H 5.26637 4.59214 6.71872
H 4.54431 6.21021 5.63338
N 6.78039 6.00003 5.86957
8
 Atoms. Timestep: 2580
B 5.27723 5.79536 6.54843
H 6.98083 6.96043 5.46059
H 7.00658 5.34223 4.97009
H 7.52434 5.77109 6.47292
H 5.23755 6.4745 7.5081
H 5.2257 4.61778 6.78855
H 4.50748 5.97148 5.68216
N 6.82326 6.01855 5.79165
8
 Atoms. Timestep: 2600
B 5.22331 5.75246 6.61814
H 6.95541 6.98801 5.46419
H 6.99524 5.41675 4.86765