
8 atoms
3 atom types
   0.0000000000   12.0000000000 xlo xhi
   0.0000000000   12.0000000000 ylo yhi
   0.0000000000   12.0000000000 zlo zhi
   0.0000000000    0.0000000000    0.0000000000 xy xz yz

Atoms # atomic

     1      1    5.7404630514    6.3300734029    5.4122447140
     2      2    7.1376464819    6.1717333190    7.1960303923
     3      2    6.9913123793    4.6590966650    6.4859210580
     4      2    5.7619891991    5.3297955372    7.4248346476
     5      2    5.3028085352    7.3409033350    5.8664791601
     6      2    4.8623535181    5.6418314315    4.9391876637
     7      2    6.6291000682    6.5188447325    4.5751653524
     8      3    6.4514303326    5.5685796474    6.6963258321
