LAMMPS (2 Aug 2023 - Update 1)
OMP_NUM_THREADS environment is not set. Defaulting to 1 thread. (src/comm.cpp:98)
  using 1 OpenMP thread(s) per MPI task
Loaded 1 plugins from /home/rverma7/.conda/envs/deepmd/lib/deepmd_lmp
#13 Butadiene
units           metal
boundary        p p p
atom_style      atomic

neighbor        2.0 bin
neigh_modify    delay 0 every 1 check yes

read_data       conf.lmp
Reading data file ...
  triclinic box = (0 0 0) to (12 12 12) with tilt (0 0 0)
  1 by 1 by 1 MPI processor grid
  reading atoms ...
  8 atoms
  read_data CPU = 0.008 seconds
mass            1 10.8
mass            2 1.0
mass            3 14.0

variable        sysvol          equal vol
variable        sysmass         equal mass(all)/6.0221367e+23
variable        sysdensity      equal v_sysmass/v_sysvol/1.0e-24
variable	out_freq 	equal 100

pair_style      deepmd frozen_model_1.pb frozen_model_2.pb out_file md.out out_freq 10 atomic relative 1.0
Summary of lammps deepmd module ...
  >>> Info of deepmd-kit:
  installed to:       /home/rverma7/.conda/envs/deepmd
  source:             v2.2.10
  source branch:      HEAD
  source commit:      f8a0b3128
  source commit at:   2024-04-06 14:46:23 -0400
  support model ver.: 1.1 
  build variant:      cuda
  build with tf inc:  /home/rverma7/.conda/envs/deepmd/include;/home/rverma7/.conda/envs/deepmd/include
  build with tf lib:  /home/rverma7/.conda/envs/deepmd/lib/libtensorflow_cc.so
  set tf intra_op_parallelism_threads: 0
  set tf inter_op_parallelism_threads: 0
  >>> Info of lammps module:
  use deepmd-kit at:  /home/rverma7/.conda/envs/deepmdpair_coeff	* *

#
velocity        all create 300.0 2345678 rot no dist gaussian
fix             1 all nvt temp 300.0 300.0 0.05
fix             2 all plumed plumedfile plumed.dat outfile PLUMED.log

timestep        0.0005
thermo_style    custom step pe ke etotal v_sysdensity temp press vol
thermo          10

dump            10 all custom 100 traj.dump id type x y z
dump		101 all xyz 20 traj.xyz
dump_modify	101 element B H N

fix		extra all print 20 "$(step), $(ke), $(pe), $(etotal), $(temp), $(press), $(vol)" file logfile screen no

restart	        100000 dump.restart

run             150000

CITE-CITE-CITE-CITE-CITE-CITE-CITE-CITE-CITE-CITE-CITE-CITE-CITE

Your simulation uses code contributions which should be cited:

- USER-DEEPMD package:

@article{Wang_ComputPhysCommun_2018_v228_p178,
  author = {Wang, Han and Zhang, Linfeng and Han, Jiequn and E, Weinan},
  doi = {10.1016/j.cpc.2018.03.016},
  url = {https://doi.org/10.1016/j.cpc.2018.03.016},
  year = 2018,
  month = {jul},
  publisher = {Elsevier {BV}},
  volume = 228,
  journal = {Comput. Phys. Commun.},
  title = {{DeePMD-kit: A deep learning package for many-body potential energy representation and molecular dynamics}},
  pages = {178--184}
}
@misc{Zeng_JChemPhys_2023_v159_p054801,
  title  = {{DeePMD-kit v2: A software package for deep potential models}},
  author =   {Jinzhe Zeng and Duo Zhang and Denghui Lu and Pinghui Mo and Zeyu Li
         and Yixiao Chen and Mari{\'a}n Rynik and Li'ang Huang and Ziyao Li and 
         Shaochen Shi and Yingze Wang and Haotian Ye and Ping Tuo and Jiabin
         Yang and Ye Ding and Yifan Li and Davide Tisi and Qiyu Zeng and Han 
         Bao and Yu Xia and Jiameng Huang and Koki Muraoka and Yibo Wang and 
         Junhan Chang and Fengbo Yuan and Sigbj{\o}rn L{\o}land Bore and Chun
         Cai and Yinnian Lin and Bo Wang and Jiayan Xu and Jia-Xin Zhu and 
         Chenxing Luo and Yuzhi Zhang and Rhys E A Goodall and Wenshuo Liang
         and Anurag Kumar Singh and Sikai Yao and Jingchao Zhang and Renata
         Wentzcovitch and Jiequn Han and Jie Liu and Weile Jia and Darrin M
         York and Weinan E and Roberto Car and Linfeng Zhang and Han Wang},
  journal =  {J. Chem. Phys.},
  volume =   159,
  issue =    5,  
  year =    2023,
  pages  =   054801,
  doi =      {10.1063/5.0155600},
}

CITE-CITE-CITE-CITE-CITE-CITE-CITE-CITE-CITE-CITE-CITE-CITE-CITE

Generated 0 of 3 mixed pair_coeff terms from geometric mixing rule
Neighbor list info ...
  update: every = 1 steps, delay = 0 steps, check = yes
  max neighbors/atom: 2000, page size: 100000
  master list distance cutoff = 8
  ghost atom cutoff = 8
  binsize = 4, bins = 3 3 3
  1 neighbor lists, perpetual/occasional/extra = 1 0 0
  (1) pair deepmd, perpetual
      attributes: full, newton on
      pair build: full/bin/atomonly
      stencil: full/bin/3d
      bin: standard
Per MPI rank memory allocation (min/avg/max) = 3.063 | 3.063 | 3.063 Mbytes
   Step         PotEng         KinEng         TotEng      v_sysdensity       Temp          Press          Volume    
         0  -36.560481      0.2714463     -36.289035      0.029597591    300           -375.61555      1728         
        10  -36.512624      0.22448964    -36.288134      0.029597591    248.10391     -708.93044      1728         
        20  -36.457708      0.17098495    -36.286723      0.029597591    188.97102     -35.061937      1728         
        30  -36.524809      0.24039667    -36.284412      0.029597591    265.68423      281.83027      1728         
        40  -36.541298      0.2607949     -36.280504      0.029597591    288.22817     -1411.6991      1728         
        50  -36.494184      0.21905411    -36.27513       0.029597591    242.09663      1631.1662      1728         
        60  -36.495616      0.23154427    -36.264072      0.029597591    255.90063     -1004.0416      1728         
        70  -36.500367      0.24287227    -36.257495      0.029597591    268.42024      759.88776      1728         
        80  -36.476464      0.22737331    -36.249091      0.029597591    251.29093      416.66082      1728         
        90  -36.486607      0.24874434    -36.237863      0.029597591    274.90999      97.689816      1728         
       100  -36.504708      0.27957175    -36.225137      0.029597591    308.98017     -740.36851      1728         
       110  -36.479878      0.27414099    -36.205737      0.029597591    302.97814      1163.1203      1728         
       120  -36.417534      0.22713939    -36.190394      0.029597591    251.0324      -2178.9766      1728         
       130  -36.451464      0.27726683    -36.174197      0.029597591    306.4328       1071.0162      1728         
       140  -36.457356      0.30351623    -36.15384       0.029597591    335.4434      -666.13078      1728         
       150  -36.451753      0.32034704    -36.131406      0.029597591    354.04465     -220.23654      1728         
       160  -36.466956      0.36765698    -36.099299      0.029597591    406.33117      359.77561      1728         
       170  -36.458212      0.38300837    -36.075204      0.029597591    423.29739      643.42356      1728         
       180  -36.408327      0.35499689    -36.05333       0.029597591    392.33935     -814.77411      1728         
       190  -36.458815      0.42800864    -36.030806      0.029597591    473.03127      1814.1016      1728         
       200  -36.416878      0.40719602    -36.009682      0.029597591    450.02936     -1105.5886      1728         
       210  -36.4767        0.48891532    -35.987784      0.029597591    540.34479      42.09186       1728         
       220  -36.394501      0.42038484    -35.974117      0.029597591    464.60552      417.84768      1728         
       230  -36.316134      0.3489588     -35.967175      0.029597591    385.66611     -1428.6683      1728         
       240  -36.459993      0.49649025    -35.963503      0.029597591    548.71654     -202.2418       1728         
       250  -36.391489      0.43042941    -35.961059      0.029597591    475.70669      204.52674      1728         
       260  -36.350919      0.39216734    -35.958751      0.029597591    433.4198      -866.35801      1728         
       270  -36.489965      0.52659953    -35.963365      0.029597591    581.99304      516.37411      1728         
       280  -36.439666      0.46438801    -35.975278      0.029597591    513.23743      400.17069      1728         
       290  -36.313262      0.32790646    -35.985356      0.029597591    362.39926     -836.10682      1728         
       300  -36.440468      0.43724631    -36.003222      0.029597591    483.24066      2033.8393      1728         
       310  -36.399653      0.38406975    -36.015584      0.029597591    424.47041     -1034.2143      1728         
       320  -36.4495        0.41641457    -36.033085      0.029597591    460.21761      500.9908       1728         
       330  -36.375214      0.32448408    -36.050729      0.029597591    358.61687      187.60525      1728         
       340  -36.373611      0.30273685    -36.070874      0.029597591    334.58202     -612.2806       1728         
       350  -36.409076      0.32628053    -36.082795      0.029597591    360.60229     -1040.5768      1728         
       360  -36.418074      0.32734287    -36.090732      0.029597591    361.77638      1068.8322      1728         
       370  -36.367055      0.26736347    -36.099691      0.029597591    295.48769     -1914.9368      1728         
       380  -36.461357      0.35072128    -36.110636      0.029597591    387.61398      1596.6099      1728         
       390  -36.453021      0.33694356    -36.116077      0.029597591    372.38697     -553.42576      1728         
       400  -36.397921      0.276216      -36.121705      0.029597591    305.27143      47.346014      1728         
       410  -36.377843      0.25601467    -36.121828      0.029597591    282.94509      734.34287      1728         
       420  -36.488523      0.35984591    -36.128677      0.029597591    397.69844      550.409        1728         
       430  -36.439226      0.30784952    -36.131377      0.029597591    340.2325      -1097.5584      1728         
       440  -36.388672      0.25296776    -36.135704      0.029597591    279.57768      1881.6031      1728         
       450  -36.432774      0.29223141    -36.140543      0.029597591    322.97151     -1529.4424      1728         
       460  -36.472136      0.3319887     -36.140147      0.029597591    366.91091     -251.8429       1728         
       470  -36.396358      0.25380218    -36.142556      0.029597591    280.49987      212.87927      1728         
       480  -36.430949      0.28412109    -36.146828      0.029597591    314.00806     -1010.9861      1728         
       490  -36.48106       0.32965812    -36.151402      0.029597591    364.33518     -34.212123      1728         
       500  -36.501633      0.34684173    -36.154791      0.029597591    383.32634      872.27087      1728         
       510  -36.414681      0.26410587    -36.150575      0.029597591    291.88742     -1202.5751      1728         
       520  -36.457464      0.30119796    -36.156266      0.029597591    332.88126      1030.0388      1728         
       530  -36.496081      0.33570798    -36.160373      0.029597591    371.02142      521.13828      1728         
       540  -36.446924      0.28262379    -36.1643        0.029597591    312.35325     -972.7438       1728         
       550  -36.422494      0.25532157    -36.167172      0.029597591    282.17909      1435.3978      1728         
       560  -36.482163      0.31597539    -36.166187      0.029597591    349.21314     -594.93016      1728         
       570  -36.46332       0.29429112    -36.169029      0.029597591    325.24789     -599.37045      1728         
       580  -36.430949      0.25923343    -36.171715      0.029597591    286.50244      390.7475       1728         
       590  -36.406902      0.23129633    -36.175606      0.029597591    255.62661     -447.27524      1728         
       600  -36.47516       0.29624278    -36.178917      0.029597591    327.40483     -967.13266      1728         
       610  -36.445828      0.26843558    -36.177392      0.029597591    296.67258      1462.9469      1728         
       620  -36.392383      0.21424297    -36.178141      0.029597591    236.77939     -1662.5628      1728         
       630  -36.48231       0.30287133    -36.179439      0.029597591    334.73065      778.71178      1728         
       640  -36.477681      0.2966252     -36.181056      0.029597591    327.82749     -134.68928      1728         
       650  -36.386953      0.20407205    -36.182881      0.029597591    225.53858      39.319469      1728         
       660  -36.440262      0.2604762     -36.179786      0.029597591    287.87594      420.10914      1728         
       670  -36.438462      0.25730944    -36.181152      0.029597591    284.37606      1131.7824      1728         
       680  -36.424123      0.24222614    -36.181896      0.029597591    267.70614     -1387.1318      1728         
       690  -36.480439      0.29910412    -36.181335      0.029597591    330.56717      1435.1327      1728         
       700  -36.418193      0.23671953    -36.181474      0.029597591    261.62028     -1206.0962      1728         
       710  -36.42743       0.25181692    -36.175613      0.029597591    278.30578     -57.831097      1728         
       720  -36.433963      0.25896147    -36.175001      0.029597591    286.20187      273.49649      1728         
       730  -36.392592      0.21921575    -36.173377      0.029597591    242.27527     -343.65102      1728         
       740  -36.453907      0.28236726    -36.17154       0.029597591    312.06975     -563.16144      1728         
       750  -36.454027      0.28623854    -36.167788      0.029597591    316.34824      857.39257      1728         
       760  -36.379875      0.22207612    -36.157799      0.029597591    245.43652     -1583.3884      1728         
       770  -36.456667      0.30493134    -36.151736      0.029597591    337.00735      700.61726      1728         
       780  -36.453105      0.30951379    -36.143592      0.029597591    342.07184      205.41921      1728         
       790  -36.390746      0.25435766    -36.136388      0.029597591    281.11379     -275.99017      1728         
       800  -36.450482      0.32215215    -36.128329      0.029597591    356.03964      1228.628       1728         
       810  -36.441144      0.32768187    -36.113462      0.029597591    362.15103      44.073279      1728         
       820  -36.382831      0.27889639    -36.103935      0.029597591    308.23377     -567.22073      1728         
       830  -36.421369      0.33080993    -36.090559      0.029597591    365.60814      685.73397      1728         
       840  -36.426158      0.35027512    -36.075883      0.029597591    387.12089     -529.31831      1728         
       850  -36.373341      0.3105093     -36.062832      0.029597591    343.17207     -531.89959      1728         
       860  -36.361085      0.31371123    -36.047374      0.029597591    346.71081      1019.2691      1728         
       870  -36.342747      0.30824976    -36.034497      0.029597591    340.67485     -1806.5023      1728         
       880  -36.329573      0.30576722    -36.023805      0.029597591    337.93116      459.5784       1728         
       890  -36.368244      0.35681725    -36.011426      0.029597591    394.35119     -105.603        1728         
       900  -36.359172      0.3628938     -35.996278      0.029597591    401.06694     -586.7897       1728         
       910  -36.346701      0.36800641    -35.978695      0.029597591    406.71736      310.50319      1728         
       920  -36.40698       0.43913354    -35.967847      0.029597591    485.32642      767.73078      1728         
       930  -36.31143       0.35300192    -35.958428      0.029597591    390.13452     -1301.9382      1728         
       940  -36.283838      0.32829203    -35.955546      0.029597591    362.82538      2248.2403      1728         
       950  -36.401635      0.44876081    -35.952874      0.029597591    495.96638     -779.94018      1728         
       960  -36.35849       0.41062845    -35.947861      0.029597591    453.82285      97.53443       1728         
       970  -36.277453      0.32705826    -35.950395      0.029597591    361.46184      656.69737      1728         
       980  -36.360589      0.39979934    -35.96079       0.029597591    441.85461     -410.13341      1728         
       990  -36.364019      0.39325425    -35.970764      0.029597591    434.62104     -1230.2862      1728         
      1000  -36.328277      0.34248861    -35.985788      0.029597591    378.51531      1399.4727      1728         
      1010  -36.289292      0.28858219    -36.00071       0.029597591    318.93843     -1631.2535      1728         
      1020  -36.439482      0.41630036    -36.023182      0.029597591    460.09139      561.82422      1728         
      1030  -36.372826      0.32900694    -36.043819      0.029597591    363.61549      278.36449      1728         
      1040  -36.324119      0.25749177    -36.066628      0.029597591    284.57757     -978.41512      1728         
      1050  -36.430604      0.33883729    -36.091767      0.029597591    374.4799       195.66132      1728         
      1060  -36.479807      0.36894134    -36.110865      0.029597591    407.75063      512.86901      1728         
      1070  -36.365031      0.23192507    -36.133106      0.029597591    256.32149     -790.33886      1728         
      1080  -36.400456      0.24475923    -36.155697      0.029597591    270.50569      1276.5759      1728         
      1090  -36.449615      0.2778404     -36.171774      0.029597591    307.0667       219.75891      1728         
      1100  -36.463177      0.27646547    -36.186711      0.029597591    305.54714     -847.55902      1728         
      1110  -36.406036      0.21046049    -36.195575      0.029597591    232.59903      986.25714      1728         
      1120  -36.435026      0.22866697    -36.206359      0.029597591    252.72067     -865.86553      1728         
      1130  -36.490393      0.2759226     -36.214471      0.029597591    304.94716     -423.93802      1728         
      1140  -36.394352      0.17346866    -36.220883      0.029597591    191.71599      584.44152      1728         
      1150  -36.389366      0.16429727    -36.225068      0.029597591    181.57985     -478.91891      1728         
      1160  -36.518386      0.29517484    -36.223212      0.029597591    326.22457     -571.35795      1728         
      1170  -36.430136      0.20554413    -36.224591      0.029597591    227.16552      934.8381       1728         
      1180  -36.380195      0.15599594    -36.224199      0.029597591    172.4053      -1199.0448      1728         
      1190  -36.465181      0.24043491    -36.224746      0.029597591    265.72649      980.42195      1728         
      1200  -36.411612      0.18777671    -36.223835      0.029597591    207.52912      286.25942      1728         
      1210  -36.399706      0.18248757    -36.217219      0.029597591    201.68362     -64.598944      1728         
      1220  -36.459974      0.24688677    -36.213087      0.029597591    272.85703      328.33472      1728         
      1230  -36.424138      0.21576131    -36.208377      0.029597591    238.45745      315.88648      1728         
      1240  -36.403256      0.19898044    -36.204276      0.029597591    219.91139     -1259.2223      1728         
      1250  -36.428204      0.23077788    -36.197426      0.029597591    255.05363      1117.5797      1728         
      1260  -36.386958      0.2012424     -36.185715      0.029597591    222.41128     -834.1072       1728         
      1270  -36.423546      0.2438606     -36.179686      0.029597591    269.51252      221.2798       1728         
      1280  -36.437461      0.2648266     -36.172635      0.029597591    292.68396      322.48251      1728         
      1290  -36.359526      0.19528256    -36.164243      0.029597591    215.82452     -650.54419      1728         
      1300  -36.364709      0.20832305    -36.156386      0.029597591    230.23675     -298.86186      1728         
      1310  -36.410591      0.26842982    -36.142161      0.029597591    296.66621      733.52986      1728         
      1320  -36.357501      0.22531562    -36.132185      0.029597591    249.01678     -1082.2182      1728         
      1330  -36.373552      0.25148587    -36.122066      0.029597591    277.93991      1041.7233      1728         
      1340  -36.396015      0.28631607    -36.109699      0.029597591    316.43393     -357.73148      1728         
      1350  -36.332869      0.23344395    -36.099425      0.029597591    258.00014     -937.67996      1728         
      1360  -36.368056      0.28432562    -36.083731      0.029597591    314.2341       916.69759      1728         
      1370  -36.41689       0.3455403     -36.07135       0.029597591    381.88802     -250.50154      1728         
      1380  -36.366748      0.30505652    -36.061692      0.029597591    337.14571     -106.89208      1728         
      1390  -36.401067      0.34870764    -36.05236       0.029597591    385.38853      1393.8165      1728         
      1400  -36.344879      0.29998318    -36.044895      0.029597591    331.5387      -618.93152      1728         
      1410  -36.363433      0.32602558    -36.037408      0.029597591    360.32052     -246.69568      1728         
      1420  -36.416794      0.38616651    -36.030628      0.029597591    426.78773      1001.9116      1728         
      1430  -36.323336      0.29719342    -36.026143      0.029597591    328.45548     -1453.5828      1728         
      1440  -36.338125      0.3127459     -36.025379      0.029597591    345.64394      1152.4762      1728         
      1450  -36.373431      0.34721723    -36.026214      0.029597591    383.74134      225.70942      1728         
      1460  -36.277942      0.25765155    -36.02029       0.029597591    284.75416     -1011.6723      1728         
      1470  -36.285476      0.26352077    -36.021955      0.029597591    291.24077      342.62481      1728         
      1480  -36.369206      0.34378372    -36.025422      0.029597591    379.94666     -405.4589       1728         
      1490  -36.31005       0.28332228    -36.026728      0.029597591    313.12522     -1647.7814      1728         
      1500  -36.275173      0.24500536    -36.030168      0.029597591    270.77771      1859.6169      1728         
      1510  -36.318385      0.29103079    -36.027354      0.029597591    321.64459     -1191.3136      1728         
      1520  -36.381395      0.3557287     -36.025667      0.029597591    393.14814     -57.153531      1728         
      1530  -36.30353       0.27802079    -36.025509      0.029597591    307.26606      608.48069      1728         
      1540  -36.339397      0.31225454    -36.027143      0.029597591    345.1009      -478.11709      1728         
      1550  -36.373508      0.34185704    -36.031651      0.029597591    377.8173       94.973749      1728         
      1560  -36.327129      0.29751365    -36.029616      0.029597591    328.8094       1841.79        1728         
      1570  -36.301901      0.26790407    -36.033997      0.029597591    296.08516     -1274.7108      1728         
      1580  -36.481809      0.44241024    -36.039399      0.029597591    488.9478       1048.7061      1728         
      1590  -36.421955      0.3775193     -36.044436      0.029597591    417.23091     -165.14572      1728         
      1600  -36.352489      0.30288761    -36.049602      0.029597591    334.74865     -930.39209      1728         
      1610  -36.350945      0.29959999    -36.051345      0.029597591    331.1152       656.37683      1728         
      1620  -36.38567       0.32912216    -36.056548      0.029597591    363.74284      349.97438      1728         
      1630  -36.357342      0.29483845    -36.062504      0.029597591    325.85279     -1095.1707      1728         
      1640  -36.329664      0.25975137    -36.069913      0.029597591    287.07486      1100.8155      1728         
      1650  -36.332386      0.25446785    -36.077918      0.029597591    281.23557     -1224.0215      1728         
      1660  -36.352909      0.27724322    -36.075666      0.029597591    306.4067      -407.53223      1728         
      1670  -36.301373      0.22152992    -36.079843      0.029597591    244.83286      743.32482      1728         
      1680  -36.304597      0.22229489    -36.082302      0.029597591    245.6783      -730.47428      1728         
      1690  -36.411606      0.32448039    -36.087126      0.029597591    358.61279      198.24787      1728         
      1700  -36.361545      0.2728584     -36.088686      0.029597591    301.56063      593.73111      1728         
      1710  -36.273496      0.1900507     -36.083446      0.029597591    210.04231     -1250.1554      1728         
      1720  -36.315354      0.2327554     -36.082599      0.029597591    257.23917      597.8488       1728         
      1730  -36.390567      0.30752504    -36.083042      0.029597591    339.87389      195.02568      1728         
      1740  -36.316978      0.23657666    -36.080401      0.029597591    261.46238     -769.7126       1728         
      1750  -36.333974      0.25537579    -36.078598      0.029597591    282.23902      1284.3421      1728         
      1760  -36.275306      0.20446269    -36.070843      0.029597591    225.97031     -494.25705      1728         
      1770  -36.347051      0.27606423    -36.070987      0.029597591    305.10369     -236.40142      1728         
      1780  -36.33091       0.2657516     -36.065158      0.029597591    293.70627      847.36723      1728         
      1790  -36.309227      0.2499186     -36.059309      0.029597591    276.20777     -202.65631      1728         
      1800  -36.31791       0.26504093    -36.052869      0.029597591    292.92084     -249.34787      1728         
      1810  -36.356001      0.31517535    -36.040826      0.029597591    348.32894      1115.2794      1728         
      1820  -36.225341      0.19607965    -36.029261      0.029597591    216.70546     -1596.1043      1728         
      1830  -36.374254      0.35826099    -36.015993      0.029597591    395.94681      853.97773      1728         
      1840  -36.369131      0.36944039    -35.999691      0.029597591    408.30218     -167.596        1728         
      1850  -36.29739       0.31115636    -35.986234      0.029597591    343.88719     -590.8601       1728         
      1860  -36.260433      0.29609944    -35.964333      0.029597591    327.24643      276.69781      1728         
      1870  -36.360271      0.4136088     -35.946662      0.029597591    457.1167      -114.99288      1728         
      1880  -36.284799      0.36107304    -35.923726      0.029597591    399.05465     -1406.6534      1728         
      1890  -36.368538      0.46748837    -35.90105       0.029597591    516.66392      1626.1654      1728         
      1900  -36.250746      0.37361693    -35.877129      0.029597591    412.91805     -1219.5237      1728         
      1910  -36.268513      0.41104658    -35.857467      0.029597591    454.28496      644.81917      1728         
      1920  -36.246669      0.408584      -35.838085      0.029597591    451.56334      587.81346      1728         
      1930  -36.204358      0.379811      -35.824547      0.029597591    419.76368     -828.2304       1728         
      1940  -36.259202      0.44514117    -35.81406       0.029597591    491.96599      108.14571      1728         
      1950  -36.327227      0.51914748    -35.80808       0.029597591    573.7571       1194.7693      1728         
      1960  -36.130183      0.33209469    -35.798089      0.029597591    367.02805     -1222.3041      1728         
      1970  -36.221623      0.42159895    -35.800024      0.029597591    465.94735      1510.3549      1728         
      1980  -36.317147      0.51334896    -35.803798      0.029597591    567.34862     -114.0934       1728         
      1990  -36.224425      0.41125459    -35.813171      0.029597591    454.51485     -1354.535       1728         
      2000  -36.238852      0.41190638    -35.826945      0.029597591    455.23521      1297.38        1728         
      2010  -36.265009      0.42157301    -35.843436      0.029597591    465.91867     -382.46731      1728         
      2020  -36.258544      0.38968786    -35.868856      0.029597591    430.6795      -777.98564      1728         
      2030  -36.243258      0.34554954    -35.897709      0.029597591    381.89823      957.41963      1728         
      2040  -36.330176      0.3957198     -35.934456      0.029597591    437.34595     -1352.391       1728         
      2050  -36.355565      0.38926191    -35.966303      0.029597591    430.20875     -578.95115      1728         
      2060  -36.333519      0.3380363     -35.995483      0.029597591    373.59466      1066.472       1728         
      2070  -36.287935      0.26114107    -36.026794      0.029597591    288.61074     -1479.2758      1728         
      2080  -36.37611       0.32466947    -36.05144       0.029597591    358.82176      1049.5742      1728         
      2090  -36.404546      0.33333337    -36.071213      0.029597591    368.39702     -97.30169       1728         
      2100  -36.354866      0.26697733    -36.087889      0.029597591    295.06093     -938.39535      1728         
      2110  -36.377638      0.27709402    -36.100544      0.029597591    306.24181      497.44657      1728         
      2120  -36.371146      0.25989913    -36.111247      0.029597591    287.23816      736.36093      1728         
      2130  -36.303123      0.18104202    -36.122081      0.029597591    200.086       -712.8116       1728         
      2140  -36.349024      0.2192838     -36.12974       0.029597591    242.35047      1970.1579      1728         
      2150  -36.411264      0.27551211    -36.135752      0.029597591    304.49349     -885.43227      1728         
      2160  -36.387222      0.25349711    -36.133725      0.029597591    280.16271     -104.77755      1728         
      2170  -36.315087      0.17954867    -36.135538      0.029597591    198.43557      331.54752      1728         
      2180  -36.347332      0.210439      -36.136893      0.029597591    232.57527     -379.80977      1728         
      2190  -36.42372       0.28562084    -36.138099      0.029597591    315.66556     -634.06249      1728         
      2200  -36.335613      0.19784419    -36.137769      0.029597591    218.6556       1434.8647      1728         
      2210  -36.339348      0.20626129    -36.133086      0.029597591    227.95811     -1463.6081      1728         
      2220  -36.417237      0.28473887    -36.132498      0.029597591    314.69082      685.78221      1728         
      2230  -36.351683      0.21896338    -36.13272       0.029597591    241.99635     -262.69098      1728         
      2240  -36.289758      0.16015875    -36.129599      0.029597591    177.006       -669.69839      1728         
      2250  -36.378051      0.25204737    -36.126004      0.029597591    278.56048      321.51439      1728         
      2260  -36.355626      0.23858081    -36.117045      0.029597591    263.67735      241.34482      1728         
      2270  -36.34962       0.23806778    -36.111552      0.029597591    263.11036     -947.30019      1728         
      2280  -36.30836       0.20516134    -36.103199      0.029597591    226.74246      1268.729       1728         
      2290  -36.283575      0.186897      -36.096678      0.029597591    206.55687     -881.20779      1728         
      2300  -36.347956      0.25946636    -36.08849       0.029597591    286.75988     -218.90409      1728         
      2310  -36.342758      0.27268318    -36.070075      0.029597591    301.36698      672.01351      1728         
      2320  -36.275314      0.22008305    -36.055231      0.029597591    243.2338      -898.97392      1728         
      2330  -36.375815      0.33452904    -36.041286      0.029597591    369.71847      182.35783      1728         
      2340  -36.329693      0.30624184    -36.023451      0.029597591    338.45571      470.03019      1728         
      2350  -36.24998       0.24410868    -36.005871      0.029597591    269.78671     -760.65204      1728         
      2360  -36.362273      0.37997487    -35.982298      0.029597591    419.94479      504.86334      1728         
      2370  -36.393401      0.43114789    -35.962253      0.029597591    476.50075      780.59         1728         
      2380  -36.270138      0.32344521    -35.946693      0.029597591    357.46872     -1073.9254      1728         
      2390  -36.305729      0.37545572    -35.930273      0.029597591    414.95027      1736.5421      1728         
      2400  -36.347821      0.43303211    -35.914789      0.029597591    478.58317     -994.69263      1728         
      2410  -36.311163      0.41091293    -35.90025       0.029597591    454.13725     -86.392219      1728         
      2420  -36.310037      0.4184959     -35.891541      0.029597591    462.51788      310.13633      1728         
      2430  -36.243049      0.35236455    -35.890684      0.029597591    389.43012     -51.95129       1728         
      2440  -36.249701      0.35827208    -35.891429      0.029597591    395.95906     -959.80897      1728         
      2450  -36.246306      0.35201915    -35.894287      0.029597591    389.04838      1840.3392      1728         
      2460  -36.206169      0.31314193    -35.893027      0.029597591    346.08162     -1900.4128      1728         
      2470  -36.263515      0.36396876    -35.899546      0.029597591    402.25499      960.82449      1728         
      2480  -36.289158      0.38265345    -35.906504      0.029597591    422.90513      145.98626      1728         
      2490  -36.175765      0.26114879    -35.914616      0.029597591    288.61928     -336.13486      1728         
      2500  -36.208856      0.28231254    -35.926543      0.029597591    312.00927      231.5947       1728         
      2510  -36.30835       0.37059975    -35.93775       0.029597591    409.58349      346.6707       1728         
      2520  -36.259524      0.30717517    -35.952349      0.029597591    339.48722     -1848.8274      1728         
      2530  -36.231593      0.26061043    -35.970982      0.029597591    288.02428      1274.1883      1728         
      2540  -36.306925      0.31101181    -35.995913      0.029597591    343.72744     -1066.6516      1728         
      2550  -36.309456      0.28949895    -36.019957      0.029597591    319.95162     -318.97479      1728         
      2560  -36.294118      0.25211421    -36.042004      0.029597591    278.63435      895.31994      1728         
      2570  -36.356066      0.28018455    -36.075882      0.029597591    309.65743     -812.98167      1728         
      2580  -36.396532      0.28876177    -36.107771      0.029597591    319.1369      -349.65214      1728         
      2590  -36.404753      0.26918232    -36.135571      0.029597591    297.49786      542.37318      1728         
      2600  -36.399394      0.23613887    -36.163255      0.029597591    260.97855     -930.37815      1728         
      2610  -36.402407      0.22498344    -36.177423      0.029597591    248.64966      480.49917      1728         
      2620  -36.432292      0.24080945    -36.191483      0.029597591    266.14042      1048.956       1728         
      2630  -36.415429      0.20724797    -36.208181      0.029597591    229.04858     -358.58369      1728         
      2640  -36.420224      0.19968878    -36.220535      0.029597591    220.69424      1151.5567      1728         
      2650  -36.429874      0.20867047    -36.221203      0.029597591    230.62072     -413.09555      1728         
      2660  -36.386654      0.17057409    -36.21608       0.029597591    188.51694     -353.30091      1728         
      2670  -36.37217       0.15731757    -36.214853      0.029597591    173.86596      379.29339      1728         
      2680  -36.393977      0.18002948    -36.213947      0.029597591    198.96695     -107.20357      1728         
      2690  -36.387881      0.17739513    -36.210486      0.029597591    196.05549     -918.9152       1728         
      2700  -36.341187      0.13214303    -36.209044      0.029597591    146.04328      1208.8411      1728         
      2710  -36.329511      0.12782909    -36.201682      0.029597591    141.27556     -1672.506       1728         
      2720  -36.357172      0.15844925    -36.198723      0.029597591    175.11668      437.04381      1728         
      2730  -36.352623      0.158475      -36.194148      0.029597591    175.14514     -279.41331      1728         
      2740  -36.351377      0.16592151    -36.185456      0.029597591    183.37495     -561.39388      1728         
      2750  -36.391618      0.21782111    -36.173797      0.029597591    240.73392      8.8795643      1728         
      2760  -36.388326      0.23126654    -36.15706       0.029597591    255.59369      598.33952      1728         
      2770  -36.347034      0.20557993    -36.141454      0.029597591    227.20508     -1435.6345      1728         
      2780  -36.399924      0.28009645    -36.119828      0.029597591    309.56006      1536.1032      1728         
      2790  -36.363519      0.25922485    -36.104294      0.029597591    286.49296     -230.42112      1728         
      2800  -36.383032      0.28334604    -36.099686      0.029597591    313.15147      1172.4853      1728         
      2810  -36.35207       0.26965135    -36.082419      0.029597591    298.01623      641.68691      1728         
      2820  -36.338376      0.27574489    -36.062631      0.029597591    304.75076     -115.13573      1728         
      2830  -36.37227       0.32419703    -36.048073      0.029597591    358.29962     -648.96889      1728         
      2840  -36.325596      0.29301485    -36.032581      0.029597591    323.83736      958.30707      1728         
      2850  -36.264133      0.24532608    -36.018807      0.029597591    271.13216     -1619.2736      1728         
      2860  -36.345094      0.34022651    -36.004867      0.029597591    376.01526      488.70228      1728         
      2870  -36.247249      0.24833122    -35.998918      0.029597591    274.45341     -497.15715      1728         
      2880  -36.224447      0.23261593    -35.991831      0.029597591    257.08502     -1114.1147      1728         
      2890  -36.264144      0.28163945    -35.982504      0.029597591    311.26537      488.44588      1728         
      2900  -36.323865      0.35042669    -35.973438      0.029597591    387.28841     -565.87899      1728         
      2910  -36.301238      0.34619802    -35.95504       0.029597591    382.61492     -836.44432      1728         
      2920  -36.331389      0.39011098    -35.941278      0.029597591    431.14713      882.57306      1728         
      2930  -36.265851      0.33661982    -35.929231      0.029597591    372.02918     -394.9733       1728         
      2940  -36.34618       0.42710194    -35.919078      0.029597591    472.0292       88.178136      1728         
      2950  -36.293835      0.37457883    -35.919256      0.029597591    413.98113      2289.5044      1728         
      2960  -36.296987      0.37796155    -35.919025      0.029597591    417.71969     -715.88386      1728         
      2970  -36.370192      0.45053571    -35.919656      0.029597591    497.92799      805.05575      1728         
      2980  -36.380976      0.4622468     -35.91873       0.029597591    510.87098     -199.65516      1728         
      2990  -36.237522      0.31520168    -35.922321      0.029597591    348.35805     -333.53632      1728         
      3000  -36.235868      0.30728324    -35.928584      0.029597591    339.60666      243.54371      1728         
      3010  -36.344239      0.40768936    -35.936549      0.029597591    450.57459      30.208991      1728         
      3020  -36.215559      0.26729532    -35.948264      0.029597591    295.41237     -2058.6928      1728         
      3030  -36.168393      0.21102905    -35.957364      0.029597591    233.2274       820.67625      1728         
      3040  -36.243428      0.2748666     -35.968561      0.029597591    303.78008     -1595.4034      1728         
      3050  -36.308119      0.32627794    -35.981841      0.029597591    360.59942      353.33001      1728         
      3060  -36.288413      0.30288341    -35.985529      0.029597591    334.744        230.16193      1728         
      3070  -36.286049      0.28936405    -35.996685      0.029597591    319.80252     -382.06231      1728         
      3080  -36.321877      0.31198628    -36.00989       0.029597591    344.80441     -290.26748      1728         
      3090  -36.35146       0.33083082    -36.020629      0.029597591    365.63123      1220.2311      1728         
      3100  -36.224653      0.18341608    -36.041237      0.029597591    202.7098      -449.8978       1728         
      3110  -36.339376      0.27987657    -36.059499      0.029597591    309.31705      1652.953       1728         
      3120  -36.391379      0.31108012    -36.080299      0.029597591    343.80294     -102.23375      1728         
      3130  -36.360778      0.26135514    -36.099423      0.029597591    288.84734     -302.82279      1728         
      3140  -36.357165      0.23465487    -36.12251       0.029597591    259.33844      58.336784      1728         
      3150  -36.400736      0.25563932    -36.145097      0.029597591    282.53027     -247.96536      1728         
      3160  -36.366176      0.20728435    -36.158891      0.029597591    229.08879     -1124.3741      1728         
      3170  -36.359558      0.18457593    -36.174982      0.029597591    203.99165      1035.0126      1728         
      3180  -36.368373      0.17707368    -36.1913        0.029597591    195.70023     -861.19839      1728         
      3190  -36.397562      0.19553546    -36.202027      0.029597591    216.10402     -81.781705      1728         
      3200  -36.357379      0.14819826    -36.209181      0.029597591    163.78738      128.28022      1728         
      3210  -36.364647      0.15720638    -36.207441      0.029597591    173.74307     -889.26875      1728         
      3220  -36.435763      0.2242141     -36.211549      0.029597591    247.79939      127.6662       1728         
      3230  -36.372394      0.16032538    -36.212069      0.029597591    177.19016      696.8782       1728         
      3240  -36.344097      0.13217229    -36.211924      0.029597591    146.07562     -142.09251      1728         
      3250  -36.387257      0.17196801    -36.215289      0.029597591    190.05748      1048.8264      1728         
      3260  -36.381705      0.17035351    -36.211352      0.029597591    188.27315      405.64066      1728         
      3270  -36.416484      0.20917875    -36.207305      0.029597591    231.18246     -865.00182      1728         
      3280  -36.449167      0.24875586    -36.200412      0.029597591    274.92273      583.44793      1728         
      3290  -36.376152      0.18218788    -36.193964      0.029597591    201.3524      -495.08666      1728         
      3300  -36.37631       0.18612901    -36.190181      0.029597591    205.70809     -207.1025       1728         
      3310  -36.367988      0.18833616    -36.179651      0.029597591    208.14742      231.15275      1728         
      3320  -36.380506      0.20607367    -36.174432      0.029597591    227.75075     -474.3635       1728         
      3330  -36.359043      0.19150343    -36.16754       0.029597591    211.64785     -559.84997      1728         
      3340  -36.342532      0.18071834    -36.161814      0.029597591    199.72827      918.27909      1728         
      3350  -36.298106      0.14207975    -36.156027      0.029597591    157.02526     -1041.5983      1728         
      3360  -36.331547      0.18598643    -36.14556       0.029597591    205.55052      820.63452      1728         
      3370  -36.319595      0.18140046    -36.138194      0.029597591    200.48215     -287.6605       1728         
      3380  -36.310046      0.18167322    -36.128373      0.029597591    200.7836      -486.35577      1728         
      3390  -36.289342      0.17125945    -36.118082      0.029597591    189.2744       63.57778       1728         
      3400  -36.313128      0.20276662    -36.110361      0.029597591    224.09584      354.75483      1728         
      3410  -36.268136      0.17300853    -36.095127      0.029597591    191.20746     -1062.6896      1728         
      3420  -36.292927      0.2107906     -36.082136      0.029597591    232.96387      1200.2748      1728         
      3430  -36.298288      0.23027798    -36.06801       0.029597591    254.50114     -1087.7957      1728         
      3440  -36.334667      0.27753966    -36.057127      0.029597591    306.73432      299.32096      1728         
      3450  -36.269714      0.22721173    -36.042502      0.029597591    251.11235      544.99631      1728         
      3460  -36.231897      0.20345116    -36.028446      0.029597591    224.85238      196.94881      1728         
      3470  -36.336748      0.3169988     -36.019749      0.029597591    350.3442      -47.763708      1728         
      3480  -36.408718      0.40150579    -36.007212      0.029597591    443.74057      1174.3178      1728         
      3490  -36.339288      0.34692939    -35.992358      0.029597591    383.42322     -1308.0632      1728         
      3500  -36.363157      0.37840764    -35.984749      0.029597591    418.2127       503.16176      1728         
      3510  -36.399335      0.42667149    -35.972663      0.029597591    471.55347     -298.27933      1728         
      3520  -36.303079      0.33483984    -35.968239      0.029597591    370.06197     -994.81995      1728         
      3530  -36.316222      0.350682      -35.96554       0.029597591    387.57058      527.80895      1728         
      3540  -36.381958      0.41576322    -35.966195      0.029597591    459.49774     -142.92684      1728         
      3550  -36.272931      0.30591933    -35.967011      0.029597591    338.09928     -664.52002      1728         
      3560  -36.199066      0.23589713    -35.963169      0.029597591    260.71137      1058.5648      1728         
      3570  -36.329717      0.36538566    -35.964332      0.029597591    403.82093     -170.54042      1728         
      3580  -36.323746      0.35527647    -35.96847       0.029597591    392.64834     -689.94099      1728         
      3590  -36.274951      0.30417273    -35.970778      0.029597591    336.16895      1527.8374      1728         
      3600  -36.312468      0.33789325    -35.974575      0.029597591    373.43656     -1179.1392      1728         
      3610  -36.377776      0.40222607    -35.975549      0.029597591    444.53661      124.76433      1728         
      3620  -36.330356      0.34800019    -35.982356      0.029597591    384.60666      106.9256       1728         
      3630  -36.315696      0.32415493    -35.991541      0.029597591    358.25309     -640.56344      1728         
      3640  -36.401044      0.39680804    -36.004236      0.029597591    438.54866     -374.16052      1728         
      3650  -36.353779      0.33495751    -36.018821      0.029597591    370.19201      1144.7534      1728         
      3660  -36.232143      0.20748809    -36.024655      0.029597591    229.31396     -1431.1638      1728         
      3670  -36.308478      0.27109166    -36.037386      0.029597591    299.60805      1296.1124      1728         
      3680  -36.32362       0.27326242    -36.050357      0.029597591    302.00716     -472.31893      1728         
      3690  -36.262282      0.19845406    -36.063828      0.029597591    219.32963     -187.86427      1728         
      3700  -36.289104      0.21286669    -36.076237      0.029597591    235.25834      509.41028      1728         
      3710  -36.281026      0.19896671    -36.082059      0.029597591    219.8962       504.70541      1728         
      3720  -36.292865      0.20273033    -36.090135      0.029597591    224.05572     -962.40815      1728         
      3730  -36.333343      0.23255626    -36.100787      0.029597591    257.01908      1297.3277      1728         
      3740  -36.332446      0.21973533    -36.11271       0.029597591    242.8495      -1122.1203      1728         
      3750  -36.333318      0.21116313    -36.122155      0.029597591    233.37558     -30.479541      1728         
      3760  -36.334983      0.20831266    -36.12667       0.029597591    230.22527      495.32416      1728         
      3770  -36.357405      0.21867779    -36.138727      0.029597591    241.68072     -693.85266      1728         
      3780  -36.365386      0.21499063    -36.150396      0.029597591    237.6057      -198.14291      1728         
      3790  -36.382121      0.22123202    -36.160889      0.029597591    244.50362      329.40774      1728         
      3800  -36.383608      0.21144371    -36.172164      0.029597591    233.68567     -1278.642       1728         
      3810  -36.402158      0.22205732    -36.180101      0.029597591    245.41574      460.10535      1728         
      3820  -36.363429      0.17563332    -36.187795      0.029597591    194.10836      192.34232      1728         
      3830  -36.382981      0.18775357    -36.195227      0.029597591    207.50355     -600.97486      1728         
      3840  -36.34972       0.13925385    -36.210466      0.029597591    153.9021       1492.9669      1728         
      3850  -36.370285      0.14724461    -36.22304       0.029597591    162.73341      257.31741      1728         
      3860  -36.372378      0.14456969    -36.227808      0.029597591    159.77711     -285.86557      1728         
      3870  -36.373658      0.14317855    -36.230479      0.029597591    158.23964      571.46463      1728         
      3880  -36.370412      0.13486208    -36.23555       0.029597591    149.04836     -303.1996       1728         
      3890  -36.375822      0.13714619    -36.238676      0.029597591    151.57273     -645.42189      1728         
      3900  -36.362007      0.11989278    -36.242114      0.029597591    132.50442      858.32597      1728         
      3910  -36.363344      0.12376403    -36.23958       0.029597591    136.78289     -951.72731      1728         
      3920  -36.36628       0.12489541    -36.241384      0.029597591    138.03327      459.17635      1728         
      3930  -36.373382      0.12938266    -36.243999      0.029597591    142.99254      62.373145      1728         
      3940  -36.363036      0.1176603     -36.245376      0.029597591    130.0371      -578.92262      1728         
      3950  -36.367278      0.12233665    -36.244941      0.029597591    135.20536     -96.993173      1728         
      3960  -36.382192      0.14416685    -36.238025      0.029597591    159.3319       93.759633      1728         
      3970  -36.358428      0.12581945    -36.232609      0.029597591    139.05452     -1115.7167      1728         
      3980  -36.340235      0.11537424    -36.224861      0.029597591    127.51057      1048.4285      1728         
      3990  -36.340741      0.12401927    -36.216722      0.029597591    137.06497     -651.40373      1728         
      4000  -36.369896      0.16611528    -36.20378       0.029597591    183.5891       133.36737      1728         
      4010  -36.322119      0.14242915    -36.179689      0.029597591    157.41141      268.55075      1728         
      4020  -36.319287      0.16364735    -36.15564       0.029597591    180.86157     -607.29809      1728         
      4030  -36.332983      0.19804371    -36.13494       0.029597591    218.87612     -372.41131      1728         
      4040  -36.341991      0.23271568    -36.109275      0.029597591    257.19527      1133.6421      1728         
      4050  -36.218527      0.12803755    -36.09049       0.029597591    141.50594     -400.77327      1728         
      4060  -36.291253      0.21099431    -36.080259      0.029597591    233.189        1711.7029      1728         
      4070  -36.337617      0.26928443    -36.068333      0.029597591    297.61072      278.1994       1728         
      4080  -36.280124      0.23075478    -36.049369      0.029597591    255.02809     -571.92794      1728         
      4090  -36.262611      0.2304199     -36.032191      0.029597591    254.65799      224.67416      1728         
      4100  -36.343962      0.32865928    -36.015302      0.029597591    363.23126      294.16064      1728         
      4110  -36.274427      0.28060071    -35.993826      0.029597591    310.11737     -995.99806      1728         
      4120  -36.248444      0.26161746    -35.986826      0.029597591    289.13725      1036.036       1728         
      4130  -36.221496      0.24110431    -35.980391      0.029597591    266.4663      -1530.2565      1728         
      4140  -36.262324      0.28916121    -35.973163      0.029597591    319.57836     -959.48905      1728         
      4150  -36.231821      0.26693851    -35.964883      0.029597591    295.01803      166.48425      1728         
      4160  -36.226415      0.27290719    -35.953508      0.029597591    301.61456     -837.32232      1728         
      4170  -36.313573      0.37216411    -35.941409      0.029597591    411.31241      260.21258      1728         
      4180  -36.302212      0.37430762    -35.927904      0.029597591    413.6814       721.52009      1728         
      4190  -36.226353      0.31149967    -35.914853      0.029597591    344.26662     -1019.4674      1728         
      4200  -36.242146      0.3399373     -35.902209      0.029597591    375.69562      1027.0714      1728         
      4210  -36.144468      0.24469957    -35.899768      0.029597591    270.43975      1341.4741      1728         
      4220  -36.233742      0.32679186    -35.90695       0.029597591    361.1674      -135.17532      1728         
      4230  -36.277588      0.38023789    -35.89735       0.029597591    420.23548      1257.1763      1728         
      4240  -36.194703      0.30505631    -35.889646      0.029597591    337.14547     -184.79088      1728         
      4250  -36.250041      0.36866769    -35.881373      0.029597591    407.4482      -111.14627      1728         
      4260  -36.192139      0.31647217    -35.875666      0.029597591    349.76218      309.59818      1728         
      4270  -36.158786      0.27408091    -35.884705      0.029597591    302.91174     -1120.0437      1728         
      4280  -36.112522      0.22584498    -35.886677      0.029597591    249.60183     -1218.6858      1728         
      4290  -36.131416      0.24399048    -35.887426      0.029597591    269.65607      223.5756       1728         
      4300  -36.091189      0.2038516     -35.887338      0.029597591    225.29494     -1671.3298      1728         
      4310  -36.238638      0.35180436    -35.886834      0.029597591    388.811        421.68144      1728         
      4320  -36.236161      0.34336672    -35.892794      0.029597591    379.48579     -134.18844      1728         
      4330  -36.27644       0.39225624    -35.884183      0.029597591    433.51805     -503.53751      1728         
      4340  -36.315087      0.42945273    -35.885634      0.029597591    474.62727      393.53301      1728         
      4350  -36.242455      0.34342591    -35.899029      0.029597591    379.55121      1604.0308      1728         
      4360  -36.152248      0.23826563    -35.913982      0.029597591    263.32902      952.206        1728         
      4370  -36.361128      0.42167153    -35.939456      0.029597591    466.02756      1561.6749      1728         
      4380  -36.325473      0.37079732    -35.954676      0.029597591    409.80184     -994.93244      1728         
      4390  -36.286234      0.31512574    -35.971108      0.029597591    348.27412      126.92145      1728         
      4400  -36.273394      0.28530969    -35.988084      0.029597591    315.32169      202.69681      1728         
      4410  -36.210502      0.20001474    -36.010487      0.029597591    221.05449     -671.44271      1728         
      4420  -36.177563      0.15004632    -36.027517      0.029597591    165.82984     -706.8382       1728         
      4430  -36.241055      0.20167074    -36.039384      0.029597591    222.88468     -92.878441      1728         
      4440  -36.207955      0.15649134    -36.051464      0.029597591    172.95282     -1712.0255      1728         
      4450  -36.237508      0.17103158    -36.066476      0.029597591    189.02256      860.80876      1728         
      4460  -36.313431      0.24372625    -36.069705      0.029597591    269.36405     -518.89159      1728         
      4470  -36.284186      0.21087335    -36.073312      0.029597591    233.05532     -124.66507      1728         
      4480  -36.244727      0.16845293    -36.076274      0.029597591    186.17265      537.09372      1728         
      4490  -36.311538      0.23516337    -36.076375      0.029597591    259.90043      251.87995      1728         
      4500  -36.283614      0.19860633    -36.085007      0.029597591    219.49791      272.13794      1728         
      4510  -36.210803      0.12127814    -36.089524      0.029597591    134.0355       1843.5195      1728         
      4520  -36.346421      0.25163619    -36.094785      0.029597591    278.10604     -569.21753      1728         
      4530  -36.392282      0.30059742    -36.091685      0.029597591    332.21755      72.70314       1728         
      4540  -36.300031      0.20984084    -36.09019       0.029597591    231.9142       375.76882      1728         
      4550  -36.288934      0.19981337    -36.08912       0.029597591    220.83193     -654.67065      1728         
      4560  -36.326224      0.24384939    -36.082375      0.029597591    269.50013     -8.8071095      1728         
      4570  -36.295297      0.21539875    -36.079898      0.029597591    238.05675      353.89443      1728         
      4580  -36.251777      0.17277382    -36.079003      0.029597591    190.94807     -934.91982      1728         
      4590  -36.249533      0.17097067    -36.078562      0.029597591    188.95524      168.00097      1728         
      4600  -36.290074      0.21383829    -36.076235      0.029597591    236.33214     -265.36849      1728         
      4610  -36.26496       0.19904972    -36.065911      0.029597591    219.98795     -866.19162      1728         
      4620  -36.217699      0.15863139    -36.059068      0.029597591    175.31798      875.25385      1728         
      4630  -36.225829      0.17762834    -36.048201      0.029597591    196.31324     -547.3407       1728         
      4640  -36.282272      0.25004542    -36.032227      0.029597591    276.34793      24.161615      1728         
      4650  -36.209278      0.19848465    -36.010794      0.029597591    219.36344      629.83292      1728         
      4660  -36.167197      0.18092823    -35.986269      0.029597591    199.96024     -178.94672      1728         
      4670  -36.281795      0.32874497    -35.95305       0.029597591    363.32596     -503.82214      1728         
      4680  -36.217284      0.30689702    -35.910387      0.029597591    339.17981      558.0493       1728         
      4690  -36.181015      0.30693715    -35.874078      0.029597591    339.22416     -1122.2484      1728         
      4700  -36.349152      0.52010915    -35.829043      0.029597591    574.81993      1246.9909      1728         
      4710  -36.193004      0.40594464    -35.787059      0.029597591    448.64634      277.78783      1728         
      4720  -36.147592      0.37410067    -35.773492      0.029597591    413.45268      1083.4932      1728         
      4730  -36.319228      0.55783647    -35.761391      0.029597591    616.51582      365.47649      1728         
      4740  -36.14008       0.3865161     -35.753564      0.029597591    427.1741       470.04498      1728         
      4750  -36.091713      0.33746177    -35.754252      0.029597591    372.95969     -1141.8612      1728         
      4760  -36.231418      0.48261396    -35.748805      0.029597591    533.38059      1097.6461      1728         
      4770  -36.112243      0.35828524    -35.753958      0.029597591    395.97361     -815.32997      1728         
      4780  -36.085346      0.31610416    -35.769241      0.029597591    349.35546      697.53727      1728         
      4790  -36.173184      0.3899774     -35.783207      0.029597591    430.99949     -656.68495      1728         
      4800  -36.127498      0.33074347    -35.796754      0.029597591    365.53469     -1150.3434      1728         
      4810  -36.112231      0.30833437    -35.803897      0.029597591    340.76836     -523.93556      1728         
      4820  -36.20227       0.38238263    -35.819887      0.029597591    422.60583     -22.267971      1728         
      4830  -36.215049      0.37885563    -35.836193      0.029597591    418.70782     -608.2832       1728         
      4840  -36.22313       0.37070166    -35.852428      0.029597591    409.69612      1235.3185      1728         
      4850  -36.215197      0.34926963    -35.865927      0.029597591    386.00964     -628.26287      1728         
      4860  -36.25252       0.37690165    -35.875618      0.029597591    416.54829     -225.09878      1728         
      4870  -36.198379      0.30884999    -35.889529      0.029597591    341.33822      908.50896      1728         
      4880  -36.171399      0.25769223    -35.913706      0.029597591    284.79912      320.5226       1728         
      4890  -36.187613      0.25532405    -35.932289      0.029597591    282.18183      730.89817      1728         
      4900  -36.211523      0.27134275    -35.94018       0.029597591    299.88555      875.25451      1728         
      4910  -36.238279      0.29255429    -35.945725      0.029597591    323.32835     -309.2145       1728         
      4920  -36.166015      0.21069003    -35.955325      0.029597591    232.85271     -423.36579      1728         
      4930  -36.170778      0.21253281    -35.958245      0.029597591    234.88934      333.9696       1728         
      4940  -36.242376      0.28170143    -35.960674      0.029597591    311.33388     -787.84871      1728         
      4950  -36.144267      0.17227678    -35.97199       0.029597591    190.39874      612.29323      1728         
      4960  -36.130818      0.15681405    -35.974004      0.029597591    173.30947     -480.96531      1728         
      4970  -36.231018      0.25221288    -35.978805      0.029597591    278.74339     -400.92948      1728         
      4980  -36.163983      0.18074492    -35.983238      0.029597591    199.75766     -423.03609      1728         
      4990  -36.153275      0.16911714    -35.984158      0.029597591    186.90673      41.974808      1728         
      5000  -36.247874      0.26557534    -35.982299      0.029597591    293.51147     -646.27578      1728         
      5010  -36.198326      0.22072052    -35.977606      0.029597591    243.93832      1054.8199      1728         
      5020  -36.135509      0.15697221    -35.978537      0.029597591    173.48426     -283.03979      1728         
      5030  -36.232857      0.25566236    -35.977195      0.029597591    282.55573      726.49204      1728         
      5040  -36.22405       0.25227428    -35.971776      0.029597591    278.81125     -807.89501      1728         
      5050  -36.218936      0.25187648    -35.96706       0.029597591    278.37161     -485.95702      1728         
      5060  -36.261881      0.30436747    -35.957513      0.029597591    336.38418     -363.88809      1728         
      5070  -36.299191      0.34756532    -35.951626      0.029597591    384.12605      644.79018      1728         
      5080  -36.19458       0.24653269    -35.948048      0.029597591    272.4657       154.16115      1728         
      5090  -36.165054      0.21117826    -35.953875      0.029597591    233.3923       2142.5974      1728         
      5100  -36.305922      0.34668125    -35.959241      0.029597591    383.14898     -255.45877      1728         
      5110  -36.248954      0.29871397    -35.95024       0.029597591    330.13598      246.81234      1728         
      5120  -36.210711      0.26406999    -35.946641      0.029597591    291.84776     -317.18407      1728         
      5130  -36.202441      0.26225306    -35.940188      0.029597591    289.83971     -88.010595      1728         
      5140  -36.168071      0.23118369    -35.936887      0.029597591    255.50212      227.536        1728         
      5150  -36.231996      0.29132953    -35.940667      0.029597591    321.97476      280.81177      1728         
      5160  -36.148858      0.21155323    -35.937305      0.029597591    233.80671     -1258.0478      1728         
      5170  -36.126179      0.18895355    -35.937225      0.029597591    208.82975     -307.70106      1728         
      5180  -36.163085      0.22730184    -35.935783      0.029597591    251.21194     -920.54067      1728         
      5190  -36.200772      0.26841133    -35.932361      0.029597591    296.64577     -667.27137      1728         
      5200  -36.193396      0.26620109    -35.927195      0.029597591    294.20304      764.18819      1728         
      5210  -36.243114      0.33110485    -35.912009      0.029597591    365.93409     -23.235968      1728         
      5220  -36.264035      0.36917178    -35.894863      0.029597591    408.00531     -282.68965      1728         
      5230  -36.274352      0.39596701    -35.878385      0.029597591    437.61916      166.83353      1728         
      5240  -36.122963      0.25291824    -35.870045      0.029597591    279.52295      582.31451      1728         
      5250  -36.228154      0.35165007    -35.876504      0.029597591    388.64048      1279.4206      1728         
      5260  -36.258128      0.39052289    -35.867605      0.029597591    431.60236      616.16041      1728         
      5270  -36.183936      0.32733471    -35.856602      0.029597591    361.76736     -124.3271       1728         
      5280  -36.276853      0.42544497    -35.851408      0.029597591    470.19793      459.83756      1728         
      5290  -36.080322      0.23049245    -35.84983       0.029597591    254.73817     -1175.564       1728         
      5300  -36.099032      0.25426465    -35.844768      0.029597591    281.01099      133.47233      1728         
      5310  -36.254198      0.41701551    -35.837182      0.029597591    460.88177     -195.97063      1728         
      5320  -36.099794      0.25426832    -35.845525      0.029597591    281.01505     -327.47623      1728         
      5330  -36.069057      0.21897733    -35.85008       0.029597591    242.01176      85.931332      1728         
      5340  -36.210959      0.3546443     -35.856314      0.029597591    391.94967     -63.999361      1728         
      5350  -36.074232      0.2160671     -35.858165      0.029597591    238.79541     -1251.2444      1728         
      5360  -36.117017      0.2650845     -35.851933      0.029597591    292.96899      1089.3653      1728         
      5370  -36.20489       0.35013903    -35.854751      0.029597591    386.97049     -1031.8979      1728         
      5380  -36.183757      0.3227575     -35.861         0.029597591    356.70867      592.14501      1728         
      5390  -36.089663      0.22234432    -35.867318      0.029597591    245.73294      754.56135      1728         
      5400  -36.169         0.29692894    -35.872071      0.029597591    328.16318     -560.84901      1728         
      5410  -36.177419      0.30775962    -35.869659      0.029597591    340.13315     -1003.4871      1728         
      5420  -36.231755      0.35600167    -35.875753      0.029597591    393.44982      451.48496      1728         
      5430  -36.243208      0.35773654    -35.885471      0.029597591    395.36719     -1157.3831      1728         
      5440  -36.297015      0.39690065    -35.900115      0.029597591    438.65101      1435.1361      1728         
      5450  -36.07926       0.16426729    -35.914993      0.029597591    181.54672      1121.9435      1728         
      5460  -36.243718      0.31592194    -35.927796      0.029597591    349.15407      511.84055      1728         
      5470  -36.341697      0.39098804    -35.950709      0.029597591    432.11645      56.870247      1728         
      5480  -36.220755      0.25465681    -35.966098      0.029597591    281.4444       0.28331901     1728         
      5490  -36.236995      0.25773825    -35.979257      0.029597591    284.84998     -1356.0886      1728         
      5500  -36.230357      0.23582471    -35.994533      0.029597591    260.63134      808.92289      1728         
      5510  -36.125165      0.12613225    -35.999032      0.029597591    139.40023     -239.95968      1728         
      5520  -36.28291       0.27527024    -36.007639      0.029597591    304.22618      214.09496      1728         
      5530  -36.242856      0.22145804    -36.021398      0.029597591    244.75342      114.4936       1728         
      5540  -36.186379      0.15784539    -36.028533      0.029597591    174.4493      -280.76687      1728         
      5550  -36.24905       0.21363323    -36.035416      0.029597591    236.10551     -393.49804      1728         
      5560  -36.22944       0.19188762    -36.037553      0.029597591    212.07246      154.00701      1728         
      5570  -36.144149      0.10180585    -36.042343      0.029597591    112.51491     -611.13298      1728         
      5580  -36.261817      0.21560881    -36.046208      0.029597591    238.2889       306.54042      1728         
      5590  -36.29283       0.24125119    -36.051579      0.029597591    266.62863     -482.27265      1728         
      5600  -36.205512      0.15380256    -36.051709      0.029597591    169.9812      -221.30186      1728         
      5610  -36.234286      0.19005209    -36.044234      0.029597591    210.04385      86.541267      1728         
      5620  -36.255659      0.2154167     -36.040242      0.029597591    238.07659     -520.21065      1728         
      5630  -36.241284      0.20742106    -36.033863      0.029597591    229.23988     -240.51416      1728         
      5640  -36.357293      0.33095318    -36.02634       0.029597591    365.76647      620.12663      1728         
      5650  -36.326135      0.31423543    -36.0119        0.029597591    347.29015     -142.32861      1728         
      5660  -36.17151       0.16074529    -36.010765      0.029597591    177.65424      1394.979       1728         
      5670  -36.30566       0.29331615    -36.012344      0.029597591    324.17036      1201.0869      1728         
      5680  -36.302479      0.30521719    -35.997262      0.029597591    337.32328     -954.41074      1728         
      5690  -36.276238      0.29603818    -35.9802        0.029597591    327.17871      669.17861      1728         
      5700  -36.278329      0.31589006    -35.962439      0.029597591    349.11884     -208.80636      1728         
      5710  -36.196086      0.25878439    -35.937301      0.029597591    286.00616     -769.79965      1728         
      5720  -36.094085      0.17666382    -35.917422      0.029597591    195.24726      582.24777      1728         
      5730  -36.20873       0.30712959    -35.9016        0.029597591    339.43684     -574.72152      1728         
      5740  -36.141656      0.26117187    -35.880484      0.029597591    288.64479     -1532.7342      1728         
      5750  -36.050575      0.19491357    -35.855662      0.029597591    215.41671      1286.8284      1728         
      5760  -36.129965      0.30681946    -35.823146      0.029597591    339.09409     -1876.2383      1728         
      5770  -36.253707      0.46284429    -35.790863      0.029597591    511.53132      221.17197      1728         
      5780  -35.992614      0.23300498    -35.759609      0.029597591    257.515        391.64305      1728         
      5790  -36.069453      0.33915001    -35.730303      0.029597591    374.82552     -959.67266      1728         
      5800  -36.285971      0.58771987    -35.698251      0.029597591    649.54269     -177.00253      1728         
      5810  -36.137463      0.46739355    -35.67007       0.029597591    516.55912      1822.971       1728         
      5820  -35.976656      0.31263953    -35.664017      0.029597591    345.52638     -368.38471      1728         
      5830  -36.203307      0.5304981     -35.672809      0.029597591    586.3017       2499.4578      1728         
      5840  -36.115868      0.43799887    -35.677869      0.029597591    484.07238     -375.50091      1728         
      5850  -36.147928      0.46713979    -35.680788      0.029597591    516.27867     -570.78352      1728         
      5860  -36.201472      0.51748378    -35.683988      0.029597591    571.91839      151.49346      1728         
      5870  -36.106776      0.4095486     -35.697227      0.029597591    452.6294       617.86326      1728         
      5880  -36.065805      0.34938625    -35.716419      0.029597591    386.13853     -1073.6528      1728         
      5890  -36.129228      0.38882002    -35.740408      0.029597591    429.72037      817.33954      1728         
      5900  -35.980807      0.22227538    -35.758532      0.029597591    245.65674     -2159.557       1728         
      5910  -36.104909      0.33972651    -35.765183      0.029597591    375.46267     -121.71909      1728         
      5920  -36.146138      0.36306338    -35.783075      0.029597591    401.25436     -379.09627      1728         
      5930  -36.083769      0.28365272    -35.800117      0.029597591    313.49042     -187.94718      1728         
      5940  -36.149238      0.33333187    -35.815906      0.029597591    368.39536      657.98163      1728         
      5950  -36.16095       0.33193885    -35.829011      0.029597591    366.85581      508.31775      1728         
      5960  -36.051804      0.22291263    -35.828891      0.029597591    246.36103     -1466.37        1728         
      5970  -36.210505      0.37230738    -35.838198      0.029597591    411.47075      759.98513      1728         
      5980  -36.202966      0.34996511    -35.853001      0.029597591    386.77828     -408.99383      1728         
      5990  -36.086047      0.21910956    -35.866938      0.029597591    242.1579       558.95606      1728         
      6000  -36.15755       0.2793801     -35.87817       0.029597591    308.76835      1692.7558      1728         
      6010  -36.179121      0.29373086    -35.88539       0.029597591    324.62869     -143.43438      1728         
      6020  -36.216447      0.32155562    -35.894891      0.029597591    355.38036     -155.70697      1728         
      6030  -36.214418      0.31114359    -35.903275      0.029597591    343.87308      155.82137      1728         
      6040  -36.190558      0.27878474    -35.911773      0.029597591    308.11038     -1344.7624      1728         
      6050  -36.141723      0.22458595    -35.917137      0.029597591    248.21036      247.63929      1728         
      6060  -36.225538      0.30624992    -35.919288      0.029597591    338.46464      907.50988      1728         
      6070  -36.177954      0.25248103    -35.925473      0.029597591    279.03975     -1335.5029      1728         
      6080  -36.176547      0.24386063    -35.932687      0.029597591    269.51256      803.56088      1728         
      6090  -36.193401      0.25696435    -35.936437      0.029597591    283.99468     -775.54476      1728         
      6100  -36.252996      0.31285407    -35.940142      0.029597591    345.76349     -1005.6754      1728         
      6110  -36.161086      0.22302536    -35.938061      0.029597591    246.48561      309.96356      1728         
      6120  -36.278559      0.33791632    -35.940643      0.029597591    373.46206      189.33612      1728         
      6130  -36.262439      0.31926535    -35.943174      0.029597591    352.84918     -502.32653      1728         
      6140  -36.105482      0.15151602    -35.953966      0.029597591    167.45413      2606.512       1728         
      6150  -36.172814      0.20607487    -35.966739      0.029597591    227.75208     -385.24131      1728         
      6160  -36.327007      0.3620658     -35.964941      0.029597591    400.15184      467.73594      1728         
      6170  -36.205027      0.23792806    -35.967099      0.029597591    262.95593     -8.0641118      1728         
      6180  -36.158397      0.19281661    -35.96558       0.029597591    213.09918     -146.08684      1728         
      6190  -36.187011      0.22325645    -35.963755      0.029597591    246.74101     -135.12107      1728         
      6200  -36.233124      0.26814249    -35.964982      0.029597591    296.34865      895.0381       1728         
      6210  -36.15151       0.18367056    -35.96784       0.029597591    202.99104     -1973.0532      1728         
      6220  -36.125254      0.15390812    -35.971346      0.029597591    170.09786      578.77059      1728         
      6230  -36.141866      0.16881798    -35.973048      0.029597591    186.5761      -1079.3223      1728         
      6240  -36.193364      0.220485      -35.972879      0.029597591    243.67803     -561.0913       1728         
      6250  -36.208036      0.2338074     -35.974229      0.029597591    258.40182      154.52265      1728         
      6260  -36.190355      0.22508386    -35.965271      0.029597591    248.76065      228.50165      1728         
      6270  -36.211478      0.25729928    -35.954179      0.029597591    284.36484     -914.44076      1728         
      6280  -36.292506      0.35865866    -35.933847      0.029597591    396.3863       854.19947      1728         
      6290  -36.216572      0.3014417     -35.91513       0.029597591    333.15064     -737.83561      1728         
      6300  -36.134367      0.22673586    -35.907631      0.029597591    250.58642      1886.0527      1728         
      6310  -36.203972      0.30623882    -35.897733      0.029597591    338.45238      1352.2706      1728         
      6320  -36.155008      0.27235753    -35.882651      0.029597591    301.00708      130.59177      1728         
      6330  -36.28434       0.42788913    -35.856451      0.029597591    472.89919     -65.587423      1728         
      6340  -36.230358      0.40827243    -35.822085      0.029597591    451.21899      103.03818      1728         
      6350  -36.0498        0.254971      -35.794829      0.029597591    281.79165     -580.78027      1728         
      6360  -36.170085      0.39346204    -35.776623      0.029597591    434.85069      419.10497      1728         
      6370  -36.047594      0.2856112     -35.761982      0.029597591    315.65492     -901.05131      1728         
      6380  -35.956261      0.2034255     -35.752836      0.029597591    224.82402     -1082.3419      1728         
      6390  -36.076239      0.3382901     -35.737948      0.029597591    373.87515     -3.3542932      1728         
      6400  -35.987738      0.26587636    -35.721862      0.029597591    293.84415     -1568.1911      1728         
      6410  -36.016772      0.31120272    -35.70557       0.029597591    343.93843      77.691324      1728         
      6420  -36.233647      0.54385875    -35.689788      0.029597591    601.06777      302.20538      1728         
[...]
    148410  -34.952182      0.24622808    -34.705954      0.029597591    272.12905      561.20667      1728         
    148420  -35.028369      0.30680373    -34.721565      0.029597591    339.0767       556.0466       1728         
    148430  -35.085071      0.3279916     -34.75708       0.029597591    362.49335      242.70237      1728         
    148440  -35.033735      0.24670476    -34.78703       0.029597591    272.65587     -1015.5811      1728         
    148450  -35.019592      0.21035428    -34.809238      0.029597591    232.48165      23.937767      1728         
    148460  -35.029773      0.20522216    -34.824551      0.029597591    226.80967      66.179484      1728         
    148470  -35.034772      0.18900206    -34.84577       0.029597591    208.88337     -572.32466      1728         
    148480  -35.000821      0.14286482    -34.857957      0.029597591    157.8929      -398.44874      1728         
    148490  -35.006901      0.14348541    -34.863416      0.029597591    158.57878      492.33342      1728         
    148500  -35.009779      0.13933367    -34.870445      0.029597591    153.99032      502.59796      1728         
    148510  -35.003022      0.12941441    -34.873608      0.029597591    143.02763     -282.80943      1728         
    148520  -35.001062      0.12461648    -34.876445      0.029597591    137.72501     -568.97429      1728         
    148530  -34.989546      0.11236885    -34.877177      0.029597591    124.18904     -547.39765      1728         
    148540  -34.949036      0.072819044   -34.876217      0.029597591    80.478949     -162.72885      1728         
    148550  -34.963113      0.088680654   -34.874432      0.029597591    98.009056     -238.62082      1728         
    148560  -34.978148      0.11208972    -34.866058      0.029597591    123.88054      663.40943      1728         
    148570  -34.971319      0.10896645    -34.862353      0.029597591    120.42873     -83.038199      1728         
    148580  -34.945818      0.087558835   -34.858259      0.029597591    96.769233      85.394562      1728         
    148590  -34.965913      0.11379339    -34.852119      0.029597591    125.76343     -152.24902      1728         
    148600  -34.981464      0.13797495    -34.843489      0.029597591    152.48867      1.5079145      1728         
    148610  -34.94941       0.11882817    -34.830582      0.029597591    131.32782     -335.47355      1728         
    148620  -34.962148      0.13923583    -34.822912      0.029597591    153.88218     -31.335673      1728         
    148630  -34.956515      0.14450984    -34.812005      0.029597591    159.71096     -962.07767      1728         
    148640  -34.90528       0.10393854    -34.801341      0.029597591    114.87193      156.78227      1728         
    148650  -34.930615      0.13730527    -34.79331       0.029597591    151.74854     -632.20663      1728         
    148660  -34.974631      0.1972527     -34.777378      0.029597591    218.0019      -112.17497      1728         
    148670  -34.919208      0.15377737    -34.76543       0.029597591    169.95335     -755.63001      1728         
    148680  -34.894195      0.13767576    -34.756519      0.029597591    152.158       -317.29697      1728         
    148690  -34.965774      0.21972739    -34.746047      0.029597591    242.84072     -712.31074      1728         
    148700  -34.940719      0.20599331    -34.734726      0.029597591    227.66194      310.49767      1728         
    148710  -34.918945      0.19838012    -34.720564      0.029597591    219.24791     -695.00526      1728         
    148720  -34.945466      0.23596022    -34.709506      0.029597591    260.7811       314.33834      1728         
    148730  -34.928947      0.22919869    -34.699749      0.029597591    253.30832     -39.893032      1728         
    148740  -34.901559      0.21496204    -34.686596      0.029597591    237.5741      -296.64677      1728         
    148750  -34.95936       0.28246275    -34.676897      0.029597591    312.17527     -397.8343       1728         
    148760  -34.98959       0.32682171    -34.662769      0.029597591    361.20039      488.27478      1728         
    148770  -34.926475      0.27299281    -34.653482      0.029597591    301.70918      622.27213      1728         
    148780  -34.892845      0.25005863    -34.642786      0.029597591    276.36254      493.43976      1728         
    148790  -34.887574      0.25640569    -34.631168      0.029597591    283.37724     -1096.2935      1728         
    148800  -35.016291      0.39064449    -34.625647      0.029597591    431.73675      525.62781      1728         
    148810  -34.948546      0.33940848    -34.609138      0.029597591    375.11118     -854.99827      1728         
    148820  -34.955515      0.35438645    -34.601129      0.029597591    391.6647      -539.99864      1728         
    148830  -35.052106      0.45360662    -34.5985        0.029597591    501.32193     -111.4814       1728         
    148840  -34.998304      0.39390962    -34.604394      0.029597591    435.34535      541.3635       1728         
    148850  -34.898383      0.29379214    -34.604591      0.029597591    324.69641      697.96701      1728         
    148860  -34.938071      0.33585489    -34.602217      0.029597591    371.18378      102.00981      1728         
    148870  -34.960324      0.35785698    -34.602467      0.029597591    395.50029     -423.87454      1728         
    148880  -35.005627      0.38723321    -34.618394      0.029597591    427.96664      534.4946       1728         
    148890  -34.931598      0.30156165    -34.630037      0.029597591    333.28321      634.12398      1728         
    148900  -34.96321       0.32462353    -34.638587      0.029597591    358.77099     -291.37743      1728         
    148910  -35.004177      0.35743686    -34.64674       0.029597591    395.03598      232.87503      1728         
    148920  -34.922255      0.26005466    -34.662201      0.029597591    287.41005     -184.54798      1728         
    148930  -34.909472      0.23384515    -34.675627      0.029597591    258.44354      513.18272      1728         
    148940  -34.971567      0.28006708    -34.6915        0.029597591    309.5276       233.17555      1728         
    148950  -34.94245       0.23654742    -34.705902      0.029597591    261.43007      700.09863      1728         
    148960  -34.905177      0.19332877    -34.711848      0.029597591    213.66521      227.49527      1728         
    148970  -34.889242      0.16950752    -34.719734      0.029597591    187.33818      689.69359      1728         
    148980  -34.939582      0.21182082    -34.727761      0.029597591    234.10245      131.74371      1728         
    148990  -34.953757      0.21744378    -34.736314      0.029597591    240.3169       1034.175       1728         
    149000  -34.921185      0.17677896    -34.744406      0.029597591    195.3745      -232.93946      1728         
    149010  -34.9707        0.22396969    -34.746731      0.029597591    247.52928      408.69461      1728         
    149020  -35.031409      0.27539064    -34.756018      0.029597591    304.35924     -493.40032      1728         
    149030  -34.954511      0.19103286    -34.763478      0.029597591    211.12779     -305.11662      1728         
    149040  -34.955991      0.18788216    -34.768109      0.029597591    207.64567     -478.82564      1728         
    149050  -35.013364      0.23957568    -34.773789      0.029597591    264.77687     -376.94112      1728         
    149060  -34.967527      0.19314555    -34.774381      0.029597591    213.46271     -671.91769      1728         
    149070  -34.969508      0.19147218    -34.778036      0.029597591    211.61332     -111.84163      1728         
    149080  -34.976381      0.19573961    -34.780642      0.029597591    216.32965     -762.57897      1728         
    149090  -35.019275      0.23477432    -34.784501      0.029597591    259.47045      13.176882      1728         
    149100  -34.973093      0.18316144    -34.789931      0.029597591    202.42837      226.37846      1728         
    149110  -34.953904      0.16763589    -34.786268      0.029597591    185.26967      265.42527      1728         
    149120  -34.983297      0.19633318    -34.786963      0.029597591    216.98565      443.58943      1728         
    149130  -34.953113      0.16641957    -34.786694      0.029597591    183.92541      298.90223      1728         
    149140  -34.910367      0.12480211    -34.785564      0.029597591    137.93017      77.927177      1728         
    149150  -34.925832      0.14219805    -34.783634      0.029597591    157.15599      615.17243      1728         
    149160  -34.973245      0.20094132    -34.772303      0.029597591    222.07853     -127.46791      1728         
    149170  -34.981991      0.22028297    -34.761708      0.029597591    243.45475      372.29993      1728         
    149180  -34.930063      0.18149457    -34.748568      0.029597591    200.58616      570.10021      1728         
    149190  -35.02076       0.29072808    -34.730032      0.029597591    321.31004      37.185112      1728         
    149200  -35.029461      0.32445549    -34.705006      0.029597591    358.58527      476.62276      1728         
    149210  -34.961604      0.28381391    -34.67779       0.029597591    313.66857     -444.89467      1728         
    149220  -34.953632      0.30019643    -34.653435      0.029597591    331.77438      227.66546      1728         
    149230  -34.970907      0.34531669    -34.625591      0.029597591    381.64088      1083.0181      1728         
    149240  -35.039783      0.43814968    -34.601633      0.029597591    484.23907     -498.94045      1728         
    149250  -34.933481      0.35422448    -34.579256      0.029597591    391.48569     -439.65952      1728         
    149260  -34.879404      0.32634574    -34.553059      0.029597591    360.67436      237.67016      1728         
    149270  -34.946326      0.41320186    -34.533124      0.029597591    456.66696      501.59236      1728         
    149280  -34.959154      0.43832647    -34.520827      0.029597591    484.43445      650.04456      1728         
    149290  -34.870457      0.35473959    -34.515718      0.029597591    392.05498     -471.53087      1728         
    149300  -34.888749      0.37370107    -34.515048      0.029597591    413.01104     -329.54864      1728         
    149310  -34.932409      0.43196247    -34.500447      0.029597591    477.40101      415.33667      1728         
    149320  -34.908111      0.40127986    -34.506831      0.029597591    443.49087     -428.21594      1728         
    149330  -34.851824      0.34834588    -34.503479      0.029597591    384.98871      936.71585      1728         
    149340  -34.97552       0.45686273    -34.518658      0.029597591    504.92055     -52.221811      1728         
    149350  -34.938209      0.40578395    -34.532425      0.029597591    448.46875     -454.98437      1728         
    149360  -34.886028      0.34511319    -34.540915      0.029597591    381.41598      628.35152      1728         
    149370  -34.846008      0.28728661    -34.558721      0.029597591    317.50656     -463.3599       1728         
    149380  -34.930712      0.35298102    -34.577731      0.029597591    390.11143     -153.50787      1728         
    149390  -34.959794      0.36497715    -34.594817      0.029597591    403.36945      402.94478      1728         
    149400  -34.866687      0.25240221    -34.614285      0.029597591    278.95264      322.62368      1728         
    149410  -34.921033      0.29117692    -34.629856      0.029597591    321.8061      -343.29574      1728         
    149420  -34.951881      0.30249268    -34.649388      0.029597591    334.31217      272.28239      1728         
    149430  -34.893498      0.22805688    -34.665441      0.029597591    252.0464       40.608339      1728         
    149440  -34.91059       0.23591498    -34.674675      0.029597591    260.7311       1537.4137      1728         
    149450  -34.99567       0.30043765    -34.695233      0.029597591    332.04097     -575.72157      1728         
    149460  -34.96958       0.26059964    -34.708981      0.029597591    288.01236     -844.34482      1728         
    149470  -34.879251      0.16245897    -34.716792      0.029597591    179.54818     -638.44692      1728         
    149480  -34.930362      0.21006025    -34.720302      0.029597591    232.15669      464.74981      1728         
    149490  -34.974404      0.24836844    -34.726035      0.029597591    274.49456      914.72762      1728         
    149500  -34.93705       0.2044662     -34.732584      0.029597591    225.97419      575.03061      1728         
    149510  -34.917974      0.18371587    -34.734258      0.029597591    203.04111     -403.387        1728         
    149520  -34.987517      0.25335156    -34.734166      0.029597591    280.00185      1026.9407      1728         
    149530  -35.012532      0.2711177     -34.741415      0.029597591    299.63683     -1051.687       1728         
    149540  -34.899443      0.15549919    -34.743944      0.029597591    171.8563      -1079.3674      1728         
    149550  -34.923626      0.18242391    -34.741202      0.029597591    201.61325     -30.683979      1728         
    149560  -34.948921      0.21309012    -34.735831      0.029597591    235.50527     -423.66877      1728         
    149570  -34.876859      0.14485309    -34.732006      0.029597591    160.09032      571.08612      1728         
    149580  -34.881789      0.15206428    -34.729724      0.029597591    168.06007      433.67993      1728         
    149590  -34.939342      0.21317541    -34.726167      0.029597591    235.59954      3.7238346      1728         
    149600  -34.962509      0.24361324    -34.718895      0.029597591    269.23914      701.99192      1728         
    149610  -34.894465      0.1886167     -34.705849      0.029597591    208.45747      770.15498      1728         
    149620  -34.991818      0.2880824     -34.703736      0.029597591    318.38606     -299.61735      1728         
    149630  -34.951952      0.25414467    -34.697807      0.029597591    280.87839     -564.57807      1728         
    149640  -34.886385      0.19928426    -34.6871        0.029597591    220.24716      397.05542      1728         
    149650  -34.906265      0.22826436    -34.678001      0.029597591    252.2757       1395.6466      1728         
    149660  -34.973472      0.30084002    -34.672632      0.029597591    332.48567     -611.3324       1728         
    149670  -34.983189      0.31906414    -34.664125      0.029597591    352.62681     -270.78089      1728         
    149680  -34.911246      0.25801022    -34.653236      0.029597591    285.15056      1391.4977      1728         
    149690  -34.975452      0.31872766    -34.656724      0.029597591    352.25493     -655.7547       1728         
    149700  -34.993059      0.34138195    -34.651677      0.029597591    377.29225     -275.24808      1728         
    149710  -34.908589      0.2673008     -34.641289      0.029597591    295.41843      811.61673      1728         
    149720  -34.934289      0.29198674    -34.642303      0.029597591    322.7011       1216.9697      1728         
    149730  -34.982938      0.3429362     -34.640002      0.029597591    379.00998      1328.3919      1728         
    149740  -34.969675      0.32873661    -34.640938      0.029597591    363.31673      551.7121       1728         
    149750  -34.90117       0.25959452    -34.641576      0.029597591    286.90152      222.03509      1728         
    149760  -34.962253      0.32444615    -34.637807      0.029597591    358.57496      25.369195      1728         
    149770  -34.965036      0.32485889    -34.640177      0.029597591    359.0311      -321.2979       1728         
    149780  -34.905007      0.26258099    -34.642426      0.029597591    290.20213     -396.10944      1728         
    149790  -34.912144      0.26792683    -34.644217      0.029597591    296.11031     -103.22286      1728         
    149800  -34.957979      0.31118429    -34.646795      0.029597591    343.91807     -135.5005       1728         
    149810  -35.000011      0.3548253     -34.645186      0.029597591    392.14971      379.4539       1728         
    149820  -34.896471      0.24872831    -34.647742      0.029597591    274.89228     -456.00968      1728         
    149830  -34.976226      0.32631522    -34.649911      0.029597591    360.64062     -774.07671      1728         
    149840  -35.000177      0.34538183    -34.654795      0.029597591    381.71287     -67.894245      1728         
    149850  -34.940899      0.27916615    -34.661732      0.029597591    308.5319       1088.4897      1728         
    149860  -34.894782      0.23414853    -34.660634      0.029597591    258.77884      1064.7316      1728         
    149870  -34.975857      0.31305363    -34.662803      0.029597591    345.98404      1171.0996      1728         
    149880  -34.964743      0.29843436    -34.666309      0.029597591    329.82695      647.41709      1728         
    149890  -34.906482      0.23718666    -34.669295      0.029597591    262.13656      1552.3041      1728         
    149900  -34.995167      0.32229668    -34.67287       0.029597591    356.19937      293.66345      1728         
    149910  -34.99753       0.32281838    -34.674712      0.029597591    356.77595     -425.4836       1728         
    149920  -34.905235      0.22596622    -34.679269      0.029597591    249.73582     -600.05877      1728         
    149930  -34.91697       0.23514267    -34.681827      0.029597591    259.87755     -21.903002      1728         
    149940  -34.964515      0.2801245     -34.684391      0.029597591    309.59107      37.275291      1728         
    149950  -34.977809      0.28943783    -34.688371      0.029597591    319.88407      241.66938      1728         
    149960  -34.903262      0.21713185    -34.686131      0.029597591    239.97215     -580.12422      1728         
    149970  -34.961813      0.27322713    -34.688586      0.029597591    301.96815      170.99568      1728         
    149980  -34.957509      0.26637756    -34.691132      0.029597591    294.39807     -215.13837      1728         
    149990  -34.906749      0.21379916    -34.69295       0.029597591    236.2889       279.60155      1728         
    150000  -34.912554      0.21924934    -34.693305      0.029597591    242.31239      642.73814      1728         
Loop time of 672.774 on 1 procs for 150000 steps with 8 atoms

Performance: 9.632 ns/day, 2.492 hours/ns, 222.957 timesteps/s, 1.784 katom-step/s
110.6% CPU use with 1 MPI tasks x 1 OpenMP threads

MPI task timing breakdown:
Section |  min time  |  avg time  |  max time  |%varavg| %total
---------------------------------------------------------------
Pair    | 660.08     | 660.08     | 660.08     |   0.0 | 98.11
Neigh   | 0.015239   | 0.015239   | 0.015239   |   0.0 |  0.00
Comm    | 0.31197    | 0.31197    | 0.31197    |   0.0 |  0.05
Output  | 1.0011     | 1.0011     | 1.0011     |   0.0 |  0.15
Modify  | 11.156     | 11.156     | 11.156     |   0.0 |  1.66
Other   |            | 0.2068     |            |       |  0.03

Nlocal:              8 ave           8 max           8 min
Histogram: 1 0 0 0 0 0 0 0 0 0
Nghost:            100 ave         100 max         100 min
Histogram: 1 0 0 0 0 0 0 0 0 0
Neighs:              0 ave           0 max           0 min
Histogram: 1 0 0 0 0 0 0 0 0 0
FullNghs:           60 ave          60 max          60 min
Histogram: 1 0 0 0 0 0 0 0 0 0

Total # of neighbors = 60
Ave neighs/atom = 7.5
Neighbor list builds = 1003
Dangerous builds = 0
#
Total wall time: 0:11:14
