8
 Atoms. Timestep: 0
B 5.74046 6.33007 5.41224
H 7.13765 6.17173 7.19603
H 6.99131 4.6591 6.48592
H 5.76199 5.3298 7.42483
H 5.30281 7.3409 5.86648
H 4.86235 5.64183 4.93919
H 6.6291 6.51884 4.57517
N 6.45143 5.56858 6.69633
8
 Atoms. Timestep: 20
B 5.69919 6.32612 5.39379
H 7.19968 6.25513 7.02221
H 6.95794 4.62073 6.47224
H 5.7717 5.41525 7.41494
H 5.29479 7.3765 5.89407
H 4.8082 5.55521 5.18264
H 6.50557 6.56062 4.60765
N 6.4938 5.56297 6.70298
8
 Atoms. Timestep: 40
B 5.66215 6.3066 5.433
H 7.33328 6.15715 7.02327
H 6.92725 4.63234 6.41457
H 5.92398 5.4661 7.50833
H 5.25987 7.36067 5.98586
H 4.76823 5.46724 5.16974
H 6.45653 6.40983 4.4796
N 6.51299 5.59875 6.67362
8
 Atoms. Timestep: 60
B 5.63263 6.26591 5.49722
H 7.42884 6.14988 6.86684
H 6.82074 4.64088 6.30688
H 6.01567 5.47064 7.52444
H 5.2113 7.3449 5.84352
H 4.70507 5.49143 5.22447
H 6.40774 6.37071 4.46588
N 6.54146 5.63192 6.64903
8
 Atoms. Timestep: 80
B 5.58682 6.25769 5.50155
H 7.43505 6.22436 6.68691
H 6.849 4.64852 6.27435
H 6.14397 5.58169 7.56954
H 5.22886 7.33612 5.83412
H 4.72454 5.43733 5.47509
H 6.33881 6.34236 4.57618
N 6.56745 5.63098 6.63254
8
 Atoms. Timestep: 100
B 5.53557 6.24883 5.49962
H 7.49879 6.21566 6.62873
H 6.93972 4.62065 6.44886
H 6.29583 5.6131 7.60369
H 5.22753 7.35307 5.99981
H 4.61624 5.43517 5.47343
H 6.11488 6.22336 4.47208
N 6.60894 5.64562 6.61899
8
 Atoms. Timestep: 120
B 5.47878 6.20979 5.52826
H 7.53544 6.25444 6.54699
H 6.94171 4.61732 6.42428
H 6.25432 5.78476 7.53921
H 5.24777 7.37507 5.977
H 4.44391 5.49735 5.56209
H 5.96824 6.27013 4.35147
N 6.67429 5.65159 6.61301
8
 Atoms. Timestep: 140
B 5.42983 6.19976 5.55939
H 7.57355 6.25278 6.4477
H 6.95946 4.62172 6.50805
H 6.36365 5.79002 7.53267
H 5.27035 7.30682 5.92705
H 4.55025 5.43614 5.87675
H 5.95597 6.19322 4.41274
N 6.69192 5.6735 6.56729
8
 Atoms. Timestep: 160
B 5.43613 6.17827 5.61865
H 7.59269 6.22281 6.30556
H 6.95381 4.66328 6.35978
H 6.56066 5.85041 7.53506
H 5.19535 7.30513 5.9357
H 4.59595 5.39355 5.94301
H 5.70875 5.9266 4.50586
N 6.69178 5.70714 6.53014
8
 Atoms. Timestep: 180
B 5.417 6.11538 5.69539
H 7.55198 6.28081 6.10256
H 6.81195 4.68981 6.2681
H 6.64128 5.84264 7.49718
H 5.15375 7.37617 5.82293
H 4.44434 5.42901 6.10767
H 5.62573 5.86367 4.52266
N 6.73354 5.74706 6.48979
8
 Atoms. Timestep: 200
B 5.31723 6.09722 5.73239
H 7.58679 6.28272 6.0416
H 7.07032 4.72384 6.32541
H 6.83735 5.94278 7.44282
H 5.25519 7.33628 5.80879
H 4.50773 5.453 6.42522
H 5.63517 5.7561 4.53418
N 6.76311 5.76017 6.4429
8
 Atoms. Timestep: 220
B 5.27291 6.0927 5.76356
H 7.45839 6.37409 5.85377
H 7.1711 4.74083 6.38678
H 6.85691 6.07946 7.37644
H 5.17646 7.23275 5.85908
H 4.52998 5.50953 6.47334
H 5.17118 5.55705 4.66209
N 6.83506 5.76373 6.41646
8
 Atoms. Timestep: 240
B 5.23019 6.03052 5.82611
H 7.52514 6.32404 5.75177
H 7.18609 4.77178 6.36792
H 6.88772 6.17839 7.2871
H 5.14944 7.26989 5.78952
H 4.52176 5.5713 6.7084
H 5.03462 5.57994 4.76153
N 6.87224 5.7973 6.3643
8
 Atoms. Timestep: 260
B 5.20832 5.99354 5.91318
H 7.5774 6.26389 5.68563
H 7.15541 4.8134 6.4072
H 7.06539 6.21893 7.18781
H 5.1703 7.28223 5.74585
H 4.66288 5.55961 6.97508
H 5.17297 5.39953 4.83467
N 6.85343 5.83709 6.28499
8
 Atoms. Timestep: 280
B 5.2686 5.99441 5.98315
H 7.33847 6.20939 5.41942
H 7.03523 4.8205 6.3006
H 7.118 6.33667 7.07843
H 4.91516 7.12749 5.77681
H 4.7256 5.51903 6.97107
H 5.00013 5.13241 5.08476
N 6.85492 5.86443 6.24567
8
 Atoms. Timestep: 300
B 5.26292 5.9446 6.06226
H 7.27144 6.20066 5.32545
H 7.13481 4.88397 6.35577
H 7.30216 6.41023 6.89485
H 4.91068 6.99977 5.74494
H 4.85465 5.62141 7.12778
H 4.9695 5.18033 5.1714
N 6.8371 5.89208 6.18542
8
 Atoms. Timestep: 320
B 5.20035 5.89768 6.14154
H 7.24766 6.11933 5.21324
H 7.286 4.96628 6.35495
H 7.22686 6.56703 6.77473
H 5.02264 7.10608 5.77592
H 4.89838 5.68007 7.33255
H 4.99039 5.08937 5.29027
N 6.86904 5.91171 6.11558
8
 Atoms. Timestep: 340
B 5.19244 5.88837 6.1929
H 7.13153 6.12758 5.11456
H 7.39173 5.05302 6.42845
H 7.17411 6.70142 6.60652
H 4.81754 7.07547 5.84914
H 4.89461 5.6341 7.39293
H 4.72107 4.95477 5.5161
N 6.9138 5.9176 6.0641
8
 Atoms. Timestep: 360
B 5.18282 5.86554 6.2612
H 7.16912 5.97572 5.05948
H 7.47419 5.14123 6.38183
H 7.28301 6.74369 6.45913
H 4.77472 6.88675 5.87208
H 5.13904 5.72379 7.44087
H 4.72798 4.95383 5.55062
N 6.88998 5.94388 6.02167
8
 Atoms. Timestep: 380
B 5.21787 5.84262 6.32371
H 7.04929 5.92594 4.98833
H 7.27893 5.14005 6.46161
H 7.2641 6.80207 6.31256
H 4.80703 6.88079 5.9256
H 5.21913 5.74814 7.51893
H 4.95942 4.84908 5.69617
N 6.86224 5.96719 5.96351
8
 Atoms. Timestep: 400
B 5.30254 5.837 6.36322
H 6.92753 5.83451 4.94261
H 7.34484 5.19528 6.39683
H 7.26417 6.82686 6.20546
H 4.59409 6.84311 5.92261
H 5.19632 5.70802 7.62373
H 4.92495 4.76212 5.91416
N 6.82021 5.98412 5.92573
8
 Atoms. Timestep: 420
B 5.30698 5.81272 6.42542
H 6.82801 5.884 4.90197
H 7.50244 5.29261 6.27943
H 7.21355 6.88774 6.02768
H 4.61689 6.71536 5.89312
H 5.43118 5.90232 7.65591
H 4.91357 4.73212 5.9659
N 6.79866 5.9854 5.89785
8
 Atoms. Timestep: 440
B 5.28438 5.7891 6.49874
H 6.74561 5.8436 4.84355
H 7.53122 5.34911 6.24333
H 7.04706 6.94366 6.0486
H 4.75894 6.66137 5.98124
H 5.43993 6.00732 7.63869
H 4.98906 4.64487 6.20335
N 6.81565 6.00106 5.82452
8
 Atoms. Timestep: 460
B 5.30272 5.7719 6.55897
H 6.81928 5.89364 4.77351
H 7.60953 5.4223 6.14941
H 7.08606 6.96655 5.89957
H 4.54545 6.58686 5.97727
H 5.43912 6.02317 7.75874
H 4.93506 4.6137 6.44624
N 6.80702 6.01031 5.77477
8
 Atoms. Timestep: 480
B 5.32211 5.76296 6.6072
H 6.68549 5.79497 4.7635
H 7.5708 5.42053 6.12753
H 7.09673 6.98011 5.83259
H 4.38398 6.4365 6.00076
H 5.66984 6.17476 7.76254
H 5.10343 4.56289 6.46609
N 6.78665 6.02696 5.74126
8
 Atoms. Timestep: 500
B 5.37216 5.75619 6.63348
H 6.55825 5.75264 4.75792
H 7.47335 5.39583 6.13396
H 7.04867 6.9958 5.71761
H 4.50516 6.3811 6.11556
H 5.66887 6.21228 7.7062
H 5.37312 4.54661 6.62395
N 6.73967 6.03828 5.71369
8
 Atoms. Timestep: 520
B 5.46093 5.76414 6.66295
H 6.53576 5.72381 4.73156
H 7.5527 5.50654 6.01373
H 7.02071 6.99315 5.6192
H 4.51024 6.20721 6.1419
H 5.64621 6.21887 7.73813
H 5.33248 4.54179 6.7733
N 6.67329 6.03879 5.69362
8
 Atoms. Timestep: 540
B 5.49179 5.74952 6.7123
H 6.35642 5.68759 4.75111
H 7.60285 5.58075 5.9293
H 6.7497 7.0502 5.59088
H 4.41396 6.16206 6.11792
H 5.81898 6.39865 7.75603
H 5.4131 4.50885 6.81126
N 6.66685 6.03602 5.65993
8
 Atoms. Timestep: 560
B 5.4927 5.71789 6.76817
H 6.38594 5.61448 4.71199
H 7.65796 5.73548 5.82411
H 6.70676 7.05591 5.47149
H 4.46625 6.24083 6.25279
H 5.87402 6.42428 7.7261
H 5.58552 4.55002 7.00215
N 6.64319 6.04378 5.61454
8
 Atoms. Timestep: 580
B 5.53208 5.73065 6.82891
H 6.44937 5.54864 4.67618
H 7.61876 5.77233 5.87183
H 6.63135 7.05414 5.31125
H 4.4823 6.00909 6.4256
H 5.88312 6.36386 7.75241
H 5.55403 4.55359 7.07683
N 6.61692 6.05674 5.55872
8
 Atoms. Timestep: 600
B 5.56174 5.73331 6.87166
H 6.36621 5.41984 4.74314
H 7.58124 5.87452 5.91587
H 6.5374 7.04174 5.23812
H 4.42067 5.94945 6.50006
H 6.01165 6.45173 7.74902
H 5.75294 4.48648 6.99796
N 6.59038 6.06025 5.5236
8
 Atoms. Timestep: 620
B 5.60605 5.71266 6.87552
H 6.36686 5.36924 4.76905
H 7.61017 5.94758 5.717
H 6.43478 6.98385 5.08128
H 4.39986 6.03846 6.56614
H 6.08415 6.49943 7.751
H 5.97028 4.55546 7.10213
N 6.5422 6.06403 5.53187
8
 Atoms. Timestep: 640
B 5.70042 5.73383 6.87755
H 6.27753 5.32204 4.8094
H 7.57089 6.08063 5.69812
H 6.22521 6.96493 5.11587
H 4.51219 5.83493 6.60143
H 6.0527 6.50197 7.74481
H 5.84769 4.60972 7.19277
N 6.49653 6.05339 5.51775
8
 Atoms. Timestep: 660
B 5.74945 5.74373 6.89783
H 6.26946 5.29379 4.80445
H 7.5351 6.15762 5.56994
H 6.04876 6.93025 5.18991
H 4.62093 5.82852 6.58839
H 6.10367 6.59024 7.65148
H 6.02296 4.57266 7.19894
N 6.45052 6.04156 5.51348
8
 Atoms. Timestep: 680
B 5.76839 5.72244 6.93138
H 6.22572 5.30382 4.7768
H 7.49929 6.22723 5.45798
H 6.01266 6.88516 5.05285
H 4.52479 5.83407 6.75065
H 6.19157 6.66633 7.6294
H 6.32465 4.64309 7.30893
N 6.42321 6.04465 5.4895
8
 Atoms. Timestep: 700
B 5.82134 5.73899 6.97882
H 6.24034 5.22151 4.81926
H 7.45758 6.17309 5.54971
H 5.97284 6.90873 5.04638
H 4.57021 5.53039 6.97852
H 6.18614 6.71447 7.67065
H 6.30907 4.69897 7.34308
N 6.3854 6.0542 5.42212
8
 Atoms. Timestep: 720
B 5.8598 5.74016 7.03992
H 6.17366 5.2595 4.73903
H 7.41402 6.22107 5.46234
H 5.95453 6.85976 4.92907
H 4.70577 5.5132 6.93664
H 6.13988 6.74605 7.61519
H 6.53477 4.7914 7.25961
N 6.34241 6.04303 5.40824
8
 Atoms. Timestep: 740
B 5.89694 5.73532 7.04633
H 6.10337 5.19553 4.83209
H 7.37376 6.21295 5.24839
H 5.81551 6.85013 5.01659
H 4.73163 5.48567 6.98716
H 6.12619 6.78466 7.59407
H 6.77393 4.87994 7.35727
N 6.31363 6.04548 5.3966
8
 Atoms. Timestep: 760
B 5.97415 5.76224 7.01963
H 5.95591 5.19411 4.88127
H 7.30436 6.29188 5.16413
H 5.66384 6.78469 5.1068
H 4.80927 5.25427 7.09486
H 6.07785 6.87436 7.58731
H 6.71707 4.85558 7.50418
N 6.28236 6.03571 5.39557
8
 Atoms. Timestep: 780
B 6.04074 5.77185 7.01177
H 6.03104 5.19419 4.81901
H 7.20157 6.30725 5.08452
H 5.62332 6.77141 5.13276
H 4.89325 5.29345 6.99096
H 6.05544 6.89509 7.51067
H 6.90466 5.04304 7.34632
N 6.21807 6.01048 5.43408
8
 Atoms. Timestep: 800
B 6.08018 5.7769 6.98558
H 5.97038 5.1322 4.9265
H 7.16622 6.37061 5.23789
H 5.4877 6.6704 5.11506
H 5.02745 5.27357 7.20035
H 6.13144 6.86798 7.47422
H 7.08866 5.18887 7.25796
N 6.17603 6.00664 5.43087
8
 Atoms. Timestep: 820
B 6.12078 5.8001 7.00868
H 6.1125 5.09755 4.92823
H 7.0653 6.41936 5.10562
H 5.42719 6.6286 5.03721
H 5.22209 5.10166 7.45669
H 6.19362 6.93539 7.47826
H 7.18691 5.09276 7.26301
N 6.12073 6.00505 5.40897
8
 Atoms. Timestep: 840
B 6.20599 5.80875 7.07823
H 6.05608 5.10428 4.87532
H 6.92666 6.5507 5.04662
H 5.25619 6.44385 5.02759
H 5.15632 5.13325 7.3356
H 6.19278 6.97458 7.52028
H 7.29711 5.22826 7.12023
N 6.07803 5.98698 5.37985
8
 Atoms. Timestep: 860
B 6.27663 5.81361 7.09539
H 6.15788 5.05411 4.95594
H 6.73986 6.6359 4.90247
H 5.11938 6.36021 5.2467
H 5.27485 5.18262 7.35434
H 6.22697 6.92844 7.54775
H 7.31006 5.34267 7.22287
N 6.02754 5.9783 5.34487
8
 Atoms. Timestep: 880
B 6.32085 5.83999 7.07781
H 6.08353 5.07142 4.90726
H 6.49491 6.68847 4.74171
H 5.02377 6.13747 5.26249
H 5.50903 5.08702 7.5003
H 6.24245 6.97292 7.46489
H 7.40126 5.25658 7.27458
N 5.99872 5.97867 5.36406
8
 Atoms. Timestep: 900
B 6.37738 5.86255 7.05134
H 6.22512 5.11177 4.89275
H 6.39093 6.75947 4.88481
H 4.96704 6.09677 5.33567
H 5.49181 5.10092 7.50012
H 6.26846 7.04162 7.43198
H 7.61807 5.42447 6.9602
N 5.94036 5.93832 5.39489
8
 Atoms. Timestep: 920
B 6.43736 5.88938 6.97191
H 6.21389 5.12022 4.9096
H 6.35697 6.79847 5.10153
H 4.90771 5.94084 5.32831
H 5.69626 5.08847 7.59156
H 6.32703 7.02446 7.43476
H 7.59986 5.62204 6.86642
N 5.88407 5.91338 5.43997
8
 Atoms. Timestep: 940
B 6.47652 5.90707 6.92639
H 6.21579 5.15864 4.92105
H 6.10976 6.76458 4.91887
H 4.86463 5.90691 5.39285
H 6.09956 5.03809 7.63348
H 6.27966 7.02484 7.31529
H 7.5993 5.65715 6.79018
N 5.84908 5.9029 5.49369
8
 Atoms. Timestep: 960
B 6.5551 5.93888 6.93243
H 6.0775 5.05886 4.99184
H 5.98973 6.76135 4.91556
H 4.84088 5.75096 5.67493
H 6.08726 4.98237 7.54111
H 6.2256 7.02871 7.41616
H 7.82172 5.88689 6.55907
N 5.79746 5.88415 5.47997
8
 Atoms. Timestep: 980
B 6.64614 5.98521 6.91164
H 5.9844 5.06423 4.91276
H 5.77259 6.69034 4.83651
H 4.78183 5.79918 5.74562
H 6.26687 4.91703 7.45565
H 6.22914 6.95413 7.55758
H 7.89933 6.09141 6.63287
N 5.73499 5.84504 5.49298
8
 Atoms. Timestep: 1000
B 6.70601 6.00145 6.89343
H 5.88995 4.99866 4.99898
H 5.72449 6.66814 4.83603
H 4.74447 5.69567 5.79579
H 6.72022 4.92981 7.4483
H 6.17483 6.91089 7.47184
H 7.77071 6.17568 6.54107
N 5.68233 5.84233 5.51053
8
 Atoms. Timestep: 1020
B 6.74859 6.01158 6.86015
H 5.9419 5.01052 5.00411
H 5.71142 6.67436 4.93262
H 4.71298 5.75267 5.87848
H 6.83214 4.95346 7.42836
H 6.19262 6.88926 7.50569
H 7.70596 6.44396 6.22198
N 5.64432 5.80984 5.54482
8
 Atoms. Timestep: 1040
B 6.76185 6.05364 6.7958
H 5.79682 5.00698 4.96321
H 5.66947 6.65182 4.98614
H 4.66739 5.64933 5.85164
H 6.98045 4.93798 7.29822
H 6.28423 6.84201 7.6244
H 7.77956 6.59242 6.10798
N 5.62831 5.78052 5.60444
8
 Atoms. Timestep: 1060
B 6.77113 6.07128 6.72549
H 5.89419 4.98947 5.06233
H 5.48292 6.63144 5.01635
H 4.71804 5.60526 6.07096
H 7.1827 4.99627 7.12728
H 6.2815 6.79497 7.56375
H 7.72241 6.56376 6.16324
N 5.61373 5.77401 5.64638
8
 Atoms. Timestep: 1080
B 6.80732 6.08163 6.67536
H 5.86527 4.97103 5.10279
H 5.27514 6.5476 5.01197
H 4.84544 5.46275 6.2567
H 7.12185 4.99103 7.10149
H 6.28884 6.75922 7.542
H 7.56655 6.67388 6.04852
N 5.60858 5.77857 5.68079
8
 Atoms. Timestep: 1100
B 6.8328 6.12261 6.64856
H 5.78418 5.02727 4.99099
H 5.13655 6.56464 5.175
H 4.80843 5.37883 6.2557
H 7.2007 5.00525 7.04164
H 6.4061 6.79878 7.60013
H 7.69639 6.76345 5.92963
N 5.58397 5.73748 5.70649
8
 Atoms. Timestep: 1120
B 6.86765 6.1461 6.63231
H 5.81227 5.12183 4.93071
H 5.15601 6.63752 5.33842
H 4.83646 5.23267 6.2868
H 7.42265 5.11637 6.9941
H 6.45069 6.86587 7.52373
H 7.71192 6.71739 5.83958
N 5.53154 5.7084 5.72472
8
 Atoms. Timestep: 1140
B 6.92265 6.15062 6.59978
H 5.76359 5.19037 4.89052
H 4.9603 6.5729 5.45085
H 4.85426 5.12268 6.25125
H 7.41569 5.1569 7.06205
H 6.4698 6.89535 7.42478
H 7.42578 6.74611 5.74767
N 5.52487 5.70544 5.75598
8
 Atoms. Timestep: 1160
B 6.91184 6.17908 6.55326
H 5.73001 5.26479 4.86773
H 4.89025 6.54041 5.57502
H 4.97177 5.01709 6.32796
H 7.4386 5.14437 6.96748
H 6.55845 6.92999 7.46919
H 7.52994 6.74947 5.67646
N 5.51681 5.68621 5.78781
8
 Atoms. Timestep: 1180
B 6.88131 6.20007 6.49938
H 5.70042 5.26444 4.88827
H 4.80279 6.48346 5.74019
H 5.11358 4.95649 6.41181
H 7.46006 5.14723 6.80824
H 6.60607 6.91987 7.46944
H 7.70057 6.75196 5.65172
N 5.52147 5.67878 5.82325
8
 Atoms. Timestep: 1200
B 6.91029 6.19104 6.45434
H 5.61339 5.27564 4.90986
H 4.68885 6.36378 5.76532
H 5.19841 4.93193 6.45926
H 7.43111 5.16794 6.81993
H 6.56941 6.86246 7.38959
H 7.39343 6.87777 5.55222
N 5.53403 5.68889 5.86324
8
 Atoms. Timestep: 1220
B 6.91983 6.21881 6.41936
H 5.61399 5.25979 4.93371
H 4.79338 6.46924 5.89164
H 5.16348 4.9126 6.49329
H 7.64462 5.26849 6.67841
H 6.65704 6.86909 7.41474
H 7.32348 6.87591 5.55576
N 5.50514 5.65492 5.88513
8
 Atoms. Timestep: 1240
B 6.93895 6.25371 6.39783
H 5.4861 5.27041 4.93671
H 4.83199 6.47665 5.87859
H 5.01563 4.93154 6.50736
H 7.77693 5.3328 6.44984
H 6.74855 6.8638 7.47316
H 7.33553 6.99621 5.46396
N 5.49049 5.61254 5.92016
8
 Atoms. Timestep: 1260
B 6.99437 6.26866 6.35831
H 5.51019 5.13636 5.02617
H 4.74718 6.41766 5.8936
H 5.09682 4.91117 6.58412
H 7.73037 5.30439 6.37959
H 6.76808 6.74964 7.4573
H 7.02715 7.17474 5.44124
N 5.47023 5.61369 5.94547
8
 Atoms. Timestep: 1280
B 6.98788 6.29296 6.3175
H 5.53187 5.09036 5.0748
H 4.64117 6.31107 5.87767
H 5.28264 4.98241 6.75158
H 7.77716 5.40934 6.16069
H 6.89637 6.65051 7.44975
H 7.13429 7.17322 5.52258
N 5.44783 5.60044 5.97302
8
 Atoms. Timestep: 1300
B 6.9757 6.33014 6.27121
H 5.42596 4.95101 5.18292
H 4.59068 6.23043 5.95007
H 5.26692 4.95319 6.7694
H 7.73823 5.41351 5.93445
H 7.01628 6.59281 7.47769
H 7.18012 7.23918 5.56799
N 5.46046 5.58868 6.00549
8
 Atoms. Timestep: 1320
B 6.98636 6.33396 6.21491
H 5.43797 5.02422 5.16802
H 4.66654 6.28888 5.9898
H 5.31088 4.99036 6.85629
H 7.72244 5.38746 5.85975
H 7.04108 6.52416 7.4586
H 6.8392 7.40191 5.52999
N 5.46653 5.56881 6.05035
8
 Atoms. Timestep: 1340
B 6.96309 6.3161 6.17619
H 5.4019 5.01247 5.21557
H 4.73214 6.33725 6.10682
H 5.29947 4.9132 6.83956
H 7.85198 5.67937 5.67791
H 7.13743 6.57211 7.3335
H 6.73342 7.35746 5.47163
N 5.47461 5.56438 6.09575
8
 Atoms. Timestep: 1360
B 6.92046 6.33667 6.12623
H 5.25953 5.11209 5.22771
H 4.72442 6.26993 6.24846
H 5.33091 4.88555 6.86488
H 7.74812 5.69539 5.54125
H 7.20372 6.61368 7.24688
H 6.73738 7.29755 5.49398
N 5.51837 5.54835 6.13586
8
 Atoms. Timestep: 1380
B 6.89132 6.36399 6.05742
H 5.3106 5.11524 5.26349
H 4.76125 6.22537 6.49584
H 5.64386 4.8045 6.82556
H 7.59754 5.45437 5.53742
H 7.23389 6.56603 7.26414
H 6.6001 7.37699 5.45481
N 5.53063 5.55097 6.17336
8
 Atoms. Timestep: 1400
B 6.87072 6.35688 6.01017
H 5.14299 5.20329 5.32914
H 4.66722 5.94084 6.72292
H 5.80777 4.76945 6.77417
H 7.68775 5.62052 5.41156
H 7.29809 6.63469 7.15541
H 6.67034 7.40721 5.2807
N 5.53745 5.55406 6.22176
8
 Atoms. Timestep: 1420
B 6.8891 6.40369 5.95961
H 5.03306 5.26717 5.40458
H 4.8649 6.00449 6.95047
H 5.7977 4.6347 6.64797
H 7.59191 5.66976 5.3621
H 7.30434 6.74331 6.99189
H 6.5711 7.34648 5.24366
N 5.53121 5.51152 6.26599
8
 Atoms. Timestep: 1440
B 6.89674 6.4527 5.88775
H 4.87594 5.46946 5.52731
H 5.07279 6.02762 7.07994
H 5.74156 4.56561 6.65262
H 7.57732 5.61924 5.32687
H 7.33461 6.82225 6.96592
H 6.34196 7.28067 5.28721
N 5.54095 5.46522 6.30434
8
 Atoms. Timestep: 1460
B 6.89206 6.4582 5.82552
H 4.78623 5.43311 5.66887
H 5.12417 5.87595 7.2513
H 5.69174 4.49611 6.55426
H 7.73242 5.82082 5.09779
H 7.39636 6.89426 6.93169
H 6.2834 7.3286 5.16683
N 5.53955 5.45641 6.36443
8
 Atoms. Timestep: 1480
B 6.88436 6.48718 5.76709
H 4.7485 5.50921 5.77089
H 5.21471 5.74991 7.37267
H 5.88956 4.51877 6.48515
H 7.57842 5.77985 5.04424
H 7.40107 6.88087 6.78886
H 6.29131 7.40687 5.12375
N 5.53768 5.43429 6.41559
8
 Atoms. Timestep: 1500
B 6.83667 6.50901 5.73184
H 4.7076 5.41061 5.8998
H 5.34032 5.66511 7.44025
H 5.93825 4.53017 6.39875
H 7.30775 5.65106 5.11363
H 7.47036 6.83457 6.64107
H 6.2222 7.36161 5.17495
N 5.58426 5.44547 6.43687
8
 Atoms. Timestep: 1520
B 6.75599 6.48034 5.71387
H 4.70513 5.45443 6.0157
H 5.45894 5.6397 7.48823
H 5.99856 4.54736 6.41918
H 7.30022 5.72304 4.8453
H 7.58374 6.84795 6.59185
H 6.1473 7.35 5.16842
N 5.63169 5.45979 6.46071
8
 Atoms. Timestep: 1540
B 6.68334 6.43094 5.67709
H 4.7624 5.51981 6.05267
H 5.61586 5.78651 7.48886
H 5.98396 4.52938 6.46145
H 7.24426 5.89105 4.67147
H 7.54225 6.82166 6.56117
H 5.98705 7.4185 5.31686
N 5.69188 5.469 6.48738
8
 Atoms. Timestep: 1560
B 6.63974 6.44567 5.65046
H 4.77064 5.48211 6.17881
H 5.70999 5.87345 7.46355
H 5.96612 4.51131 6.61628
H 6.96176 5.83739 4.69815
H 7.52677 6.71476 6.36833
H 5.85508 7.39262 5.50148
N 5.75019 5.46873 6.48834
8
 Atoms. Timestep: 1580
B 6.60753 6.46235 5.61616
H 4.79725 5.34368 6.20138
H 5.71111 5.86404 7.51653
H 6.18633 4.56695 6.61547
H 6.71612 5.92224 4.54105
H 7.67347 6.68673 6.12545
H 5.92744 7.44247 5.47597
N 5.75923 5.45483 6.53986
8
 Atoms. Timestep: 1600
B 6.5682 6.48571 5.54239
H 4.87512 5.15146 6.22306
H 5.63441 5.76551 7.60498
H 6.34341 4.63718 6.5998
H 6.49237 5.93072 4.37985
H 7.79228 6.55868 5.98938
H 6.0065 7.5758 5.58654
N 5.78011 5.45158 6.60336
8
 Atoms. Timestep: 1620
B 6.53751 6.5281 5.47997
H 4.91716 5.06587 6.29837
H 5.63075 5.79265 7.61867
H 6.42849 4.66784 6.76078
H 6.24071 5.9154 4.45701
H 7.71531 6.36619 5.80416
H 6.03864 7.61793 5.72458
N 5.81614 5.4327 6.63151
8
 Atoms. Timestep: 1640
B 6.51288 6.52744 5.44617
H 4.94791 5.00735 6.35348
H 5.69678 5.99859 7.53367
H 6.46783 4.65549 6.84611
H 6.05079 6.15765 4.4416
H 7.65936 6.44107 5.51895
H 6.06554 7.62697 5.72178
N 5.84107 5.40026 6.6753
8
 Atoms. Timestep: 1660
B 6.46426 6.52052 5.40709
H 4.95317 4.99541 6.4764
H 5.72012 5.98724 7.56218
H 6.48919 4.67892 6.99144
H 5.87775 6.24246 4.35186
H 7.70089 6.44349 5.34732
H 6.08837 7.57684 5.91123
N 5.88276 5.40294 6.68939
8
 Atoms. Timestep: 1680
B 6.4082 6.53299 5.39128
H 5.0277 4.94724 6.48168
H 5.78051 6.01508 7.56528
H 6.56083 4.68069 6.90455
H 5.67179 6.13379 4.42877
H 7.66055 6.24118 5.29951
H 6.13939 7.57982 5.9519
N 5.92521 5.41665 6.70221
8
 Atoms. Timestep: 1700
B 6.3585 6.50505 5.40936
H 5.05508 4.96035 6.49111
H 5.86347 5.91647 7.64782
H 6.71398 4.79385 6.77792
H 5.58057 6.20057 4.54811
H 7.49379 6.22821 5.13166
H 6.22432 7.66657 5.70505
N 5.95709 5.42618 6.71183
8
 Atoms. Timestep: 1720
B 6.30647 6.47992 5.39674
H 5.14408 4.87417 6.57661
H 5.93974 5.83374 7.71081
H 6.70937 4.76376 6.71185
H 5.476 6.19685 4.60588
H 7.37944 6.18275 5.02907
H 6.2465 7.65096 5.78012
N 5.9998 5.46441 6.71352
8
 Atoms. Timestep: 1740
B 6.24665 6.46479 5.39571
H 5.11169 5.00266 6.65231
H 6.06965 6.00899 7.62625
H 6.78549 4.79617 6.76395
H 5.27415 6.19276 4.62805
H 7.38633 6.10208 4.94581
H 6.20836 7.56596 5.95611
N 6.0502 5.4642 6.70302
8
 Atoms. Timestep: 1760
B 6.19566 6.43464 5.42187
H 5.1556 4.99716 6.81282
H 6.20212 6.17205 7.48924
H 6.75718 4.72302 6.80316
H 5.18726 6.29267 4.69183
H 7.26649 6.23837 4.77988
H 6.20513 7.58669 5.80329
N 6.09395 5.46307 6.69657
8
 Atoms. Timestep: 1780
B 6.14704 6.43394 5.38548
H 5.18404 5.07299 6.91809
H 6.37254 6.01584 7.6127
H 6.81978 4.75456 6.70253
H 5.14394 6.18179 4.82373
H 7.09788 6.15637 4.77002
H 6.18497 7.5574 5.84765
N 6.12936 5.48298 6.70361
8
 Atoms. Timestep: 1800
B 6.08871 6.441 5.3588
H 5.23128 5.06615 6.9047
H 6.5477 5.9612 7.64409
H 6.73622 4.7183 6.45375
H 5.03264 6.09974 4.85573
H 7.05223 6.04089 4.73467
H 6.12407 7.6153 5.77731
N 6.18 5.49448 6.74594
8
 Atoms. Timestep: 1820
B 6.03308 6.44747 5.35766
H 5.27898 5.19059 7.16366
H 6.7632 5.89406 7.59441
H 6.766 4.68058 6.50438
H 4.91666 6.09636 4.85236
H 7.03613 6.13678 4.59874
H 6.06604 7.65561 5.54191
N 6.21557 5.47861 6.75502
8
 Atoms. Timestep: 1840
B 5.97857 6.45928 5.30592
H 5.38357 5.28615 7.3359
H 6.94835 6.04365 7.3826
H 6.60916 4.5575 6.56321
H 4.90522 6.01996 4.95263
H 6.92013 6.13383 4.61008
H 5.98157 7.56561 5.76603
N 6.26326 5.47287 6.76958
8
 Atoms. Timestep: 1860
B 5.91299 6.4357 5.28568
H 5.50463 5.59068 7.46908
H 7.17227 5.96342 7.20114
H 6.59228 4.53228 6.60417
H 4.87039 6.04488 4.92484
H 6.81529 6.23489 4.59232
H 5.87563 7.49197 5.89194
N 6.30796 5.4731 6.77997
8
 Atoms. Timestep: 1880
B 5.85036 6.39621 5.33884
H 5.71282 5.68985 7.58349
H 7.33779 5.83686 7.07671
H 6.33263 4.49566 6.70457
H 4.77763 5.95899 4.90169
H 6.80223 6.36665 4.53007
H 5.74493 7.60545 5.70186
N 6.36502 5.49675 6.75219
8
 Atoms. Timestep: 1900
B 5.79984 6.39663 5.37202
H 5.94333 5.9246 7.6161
H 7.47497 5.58889 6.83388
H 6.21063 4.56914 6.55614
H 4.80453 5.64246 5.11334
H 6.76831 6.20954 4.54064
H 5.55451 7.53245 5.74291
N 6.40055 5.53117 6.7334
8
 Atoms. Timestep: 1920
B 5.75848 6.34072 5.40437
H 6.21048 5.90235 7.70236
H 7.51992 5.49561 6.65569
H 6.00704 4.68384 6.65118
H 4.79802 5.65196 5.20751
H 6.55258 6.25978 4.51829
H 5.43585 7.40232 5.76329
N 6.44906 5.57939 6.70164
8
 Atoms. Timestep: 1940
B 5.70103 6.27895 5.45526
H 6.46596 6.15617 7.59551
H 7.52133 5.38635 6.46487
H 6.14272 4.67687 6.8496
H 4.70183 5.68081 5.205
H 6.40695 6.37403 4.51771
H 5.43048 7.46807 5.7502
N 6.48299 5.6023 6.67063
8
 Atoms. Timestep: 1960
B 5.6292 6.27722 5.48295
H 6.65333 6.3717 7.35886
H 7.50767 5.50079 6.21275
H 6.2101 4.78775 7.13538
H 4.60312 5.5346 5.33269
H 6.43453 6.24326 4.46445
H 5.41467 7.44804 5.9672
N 6.52739 5.59336 6.64294
8
 Atoms. Timestep: 1980
B 5.55406 6.25978 5.5039
H 6.87728 6.40511 7.28957
H 7.49426 5.23135 6.17596
H 6.29528 4.86245 7.1958
H 4.54095 5.5539 5.44989
H 6.18499 6.24811 4.42269
H 5.26757 7.33481 5.89362
N 6.59701 5.6247 6.62992
8
 Atoms. Timestep: 2000
B 5.46893 6.22754 5.51318
H 7.17838 6.34544 7.22788
H 7.45977 5.11246 6.13019
H 6.15386 5.04584 7.20188
H 4.58842 5.45713 5.61846
H 5.94206 6.29474 4.46511
H 5.19991 7.3332 5.85343
N 6.67253 5.65292 6.6178
8
 Atoms. Timestep: 2020
B 5.3897 6.22723 5.51561
H 7.31824 6.40937 7.07038
H 7.30859 4.95571 6.06671
H 6.2184 5.1875 7.29155
H 4.63287 5.29388 5.7925
H 5.89675 6.16573 4.39462
H 5.08705 7.36245 6.04865
N 6.73797 5.66846 6.60396
8
 Atoms. Timestep: 2040
B 5.35137 6.20769 5.56125
H 7.4969 6.41463 6.74217
H 7.31104 4.90716 6.116
H 6.48755 5.32618 7.46922
H 4.5195 5.27618 5.7801
H 5.80093 6.19853 4.3633
H 4.95907 7.30697 6.02439
N 6.75946 5.6796 6.58084
8
 Atoms. Timestep: 2060
B 5.32373 6.16204 5.61942
H 7.43578 6.49725 6.41387
H 7.18075 4.83134 6.10798
H 6.67392 5.56537 7.52096
H 4.50719 5.29973 5.74503
H 5.77018 6.30602 4.50975
H 5.05458 7.20412 6.01936
N 6.7774 5.69523 6.5487
8
 Atoms. Timestep: 2080
B 5.3169 6.13574 5.66802
H 7.43834 6.43989 6.12633
H 7.11916 4.78693 6.1948
H 6.71985 5.74299 7.4872
H 4.55363 5.23578 5.81655
H 5.78259 6.22459 4.58358
H 5.05099 7.17986 6.24568
N 6.77965 5.72222 6.5014
8
 Atoms. Timestep: 2100
B 5.34498 6.10951 5.7317
H 7.57038 6.32543 6.10143
H 7.10555 4.75872 6.33041
H 6.78197 5.93757 7.41353
H 4.5831 5.13925 5.94966
H 5.58726 6.25465 4.49948
H 4.88566 7.18818 6.3163
N 6.76875 5.7429 6.44109
8
 Atoms. Timestep: 2120
B 5.36708 6.07507 5.78984
H 7.58565 6.24325 5.94484
H 6.92003 4.75037 6.3785
H 6.7008 6.01464 7.34931
H 4.6923 5.08153 6.09323
H 5.39385 6.28549 4.56584
H 4.94672 7.09425 6.29484
N 6.77132 5.77906 6.39512
8
 Atoms. Timestep: 2140
B 5.33193 6.06306 5.8191
H 7.56754 6.24352 5.86256
H 6.96418 4.77409 6.32907
H 6.86911 6.11178 7.29684
H 4.71497 5.11085 6.19556
H 5.42882 6.10016 4.63402
H 5.00622 7.02142 6.39533
N 6.77618 5.79602 6.36634
8
 Atoms. Timestep: 2160
B 5.28445 6.04587 5.85363
H 7.43588 6.323 5.70796
H 7.14076 4.80327 6.33885
H 7.02749 6.0733 7.27598
H 4.58746 5.12436 6.27672
H 5.36592 6.02296 4.63198
H 4.8858 7.18886 6.30494
N 6.82049 5.79685 6.35234
8
 Atoms. Timestep: 2180
B 5.23006 6.02154 5.88831
H 7.37426 6.40631 5.67478
H 7.17221 4.82871 6.16744
H 7.07128 6.14247 7.23988
H 4.53318 5.1525 6.43682
H 5.26851 5.94608 4.63526
H 4.98013 7.2439 6.16215
N 6.86558 5.80247 6.34131
8
 Atoms. Timestep: 2200
B 5.18258 6.0179 5.8982
H 7.44957 6.45397 5.70067
H 7.24005 4.85998 6.18347
H 7.10236 6.00999 7.2474
H 4.61801 5.26478 6.64756
H 5.1822 5.68822 4.73316
H 5.07375 7.11441 6.22461
N 6.88318 5.82874 6.30364
8
 Atoms. Timestep: 2220
B 5.16437 6.00088 5.936
H 7.53444 6.50192 5.77348
H 7.23487 4.88068 6.02778
H 7.01005 6.042 7.23081
H 4.70231 5.30762 6.80922
H 4.98497 5.58661 4.82099
H 4.94777 7.18383 6.08707
N 6.91519 5.83392 6.27359
8
 Atoms. Timestep: 2240
B 5.15664 5.98655 5.98339
H 7.50975 6.56135 5.74405
H 7.24499 4.88868 6.03063
H 7.02631 5.91333 7.21606
H 4.75053 5.34124 6.96507
H 4.90256 5.46177 4.89333
H 4.86125 7.25294 5.91097
N 6.92965 5.85093 6.23627
8
 Atoms. Timestep: 2260
B 5.14344 5.97023 6.00745
H 7.46734 6.58986 5.70296
H 7.28369 4.97049 5.83679
H 7.19979 5.97775 7.15597
H 4.7422 5.5065 7.06655
H 5.00015 5.24438 5.03582
H 4.9916 7.19519 5.99165
N 6.91202 5.85889 6.21559
8
 Atoms. Timestep: 2280
B 5.16318 5.95183 6.06457
H 7.21155 6.6739 5.58196
H 7.24106 4.97359 5.80248
H 7.29955 5.92165 7.10333
H 4.6976 5.57174 7.09509
H 4.91766 5.24728 5.11324
H 4.99491 7.06416 5.82144
N 6.91983 5.87536 6.19097
8
 Atoms. Timestep: 2300
B 5.18016 5.93371 6.11627
H 7.23026 6.67787 5.54873
H 7.2749 5.02542 5.70132
H 7.33226 6.04986 7.04254
H 4.74232 5.59355 7.20859
H 4.86726 5.17826 5.19835
H 4.92026 7.09007 5.70957
N 6.90638 5.87771 6.15883
8
 Atoms. Timestep: 2320
B 5.18842 5.911 6.13538
H 7.29347 6.65541 5.48162
H 7.31567 4.9998 5.80915
H 7.27181 6.02107 7.02217
H 4.94622 5.68373 7.33752
H 4.90611 4.97778 5.38823
H 4.88766 7.16137 5.89641
N 6.88188 5.90351 6.10652
8
 Atoms. Timestep: 2340
B 5.23878 5.8923 6.19452
H 7.31586 6.6192 5.39128
H 7.17207 4.96499 5.79692
H 7.14281 6.17744 6.99086
H 5.08486 5.65531 7.36923
H 4.75374 5.02462 5.50216
H 4.80864 6.9464 5.84332
N 6.86753 5.92588 6.06384
8
 Atoms. Timestep: 2360
B 5.27416 5.88229 6.24987
H 7.16674 6.54422 5.20414
H 7.25195 4.98083 5.90533
H 7.32806 6.25973 6.84509
H 5.11317 5.62747 7.42218
H 4.83316 4.99112 5.53413
H 4.81231 6.88776 5.88807
N 6.824 5.94052 6.02792
8
 Atoms. Timestep: 2380
B 5.28499 5.85595 6.29402
H 6.87547 6.36765 5.01163
H 7.25061 4.9817 5.88821
H 7.39134 6.5459 6.5909
H 5.104 5.61767 7.51022
H 4.98701 4.89906 5.56505
H 4.83517 7.06055 6.05638
N 6.82005 5.94788 6.00648
8
 Atoms. Timestep: 2400
B 5.29203 5.83282 6.37674
H 6.76728 6.17056 4.88786
H 7.36297 5.04885 6.10728
H 7.36259 6.70684 6.3897
H 5.17402 5.48996 7.5425
H 4.7757 5.04191 5.597
H 4.76778 6.95964 6.05464
N 6.83129 5.96963 5.94576
8
 Atoms. Timestep: 2420
B 5.26729 5.82696 6.43706
H 6.97322 5.93388 4.80631
H 7.49162 5.21483 6.24084
H 7.21498 6.86862 6.18147
H 5.37809 5.45459 7.56376
H 4.72686 5.02865 5.70457
H 4.81982 6.86861 6.3214
N 6.82221 5.97763 5.88213
8
 Atoms. Timestep: 2440
B 5.26132 5.80931 6.47827
H 6.94196 5.76629 4.76827
H 7.47596 5.38243 6.42449
H 7.04539 6.96357 5.97488
H 5.58962 5.44054 7.61777
H 4.71622 4.9093 5.84246
H 4.82053 6.95605 6.59213
N 6.82788 5.98774 5.82165
8
 Atoms. Timestep: 2460
B 5.29956 5.77319 6.55901
H 6.89085 5.55623 4.79337
H 7.55709 5.55231 6.38444
H 7.0777 6.99697 5.70064
H 5.62736 5.34832 7.68482
H 4.60158 4.99058 5.90794
H 4.68561 6.95086 6.51629
N 6.80905 6.01724 5.77597
8
 Atoms. Timestep: 2480
B 5.30816 5.75896 6.63184
H 6.72867 5.43026 4.84266
H 7.66661 5.6893 6.25801
H 6.98519 6.97174 5.39562
H 5.58573 5.36127 7.71692
H 4.76971 4.96382 5.90934
H 4.7996 6.84557 6.58477
N 6.79562 6.03774 5.7398
8
 Atoms. Timestep: 2500
B 5.29965 5.76434 6.67992
H 6.63567 5.30405 4.9187
H 7.72878 5.88879 6.17736
H 6.74956 6.98076 5.32749
H 5.69623 5.38638 7.75277
H 4.84017 4.85826 6.00824
H 4.80399 6.79077 6.74969
N 6.80797 6.03737 5.6865
8
 Atoms. Timestep: 2520
B 5.33184 5.74316 6.73807
H 6.86638 5.3037 4.86203
H 7.73013 6.03266 6.11158
H 6.66153 6.92723 5.15937
H 5.89271 5.38151 7.79905
H 4.63296 4.87248 6.16261
H 4.68179 6.84845 6.73536
N 6.78235 6.0425 5.64909
8
 Atoms. Timestep: 2540
B 5.37175 5.72163 6.78015
H 6.98834 5.2551 4.91137
H 7.56821 6.24012 6.20518
H 6.60981 6.89914 5.07323
H 5.96181 5.44009 7.8178
H 4.6913 4.85573 6.27821
H 4.86243 6.90667 6.7774
N 6.73611 6.04262 5.59997
8
 Atoms. Timestep: 2560
B 5.42269 5.73586 6.79239
H 7.00919 5.18562 5.03907
H 7.46812 6.31661 6.21786
H 6.40037 6.78687 4.95905
H 6.03398 5.44176 7.76436
H 4.80265 4.83962 6.3412
H 4.95134 6.79737 6.91181
N 6.69797 6.048 5.57838
8
 Atoms. Timestep: 2580
B 5.48451 5.74263 6.79856
H 6.97971 5.15056 5.11841
H 7.4923 6.55193 5.94237
H 6.34166 6.64701 4.83598
H 6.19091 5.36079 7.73226
H 4.73053 4.8655 6.33462
H 4.86164 6.74299 6.95109
N 6.6552 6.04628 5.59637
8
 Atoms. Timestep: 2600
B 5.55325 5.74009 6.78442
H 6.98218 5.1091 5.32036
H 7.45157 6.60831 5.83186