ITEM: TIMESTEP
0
ITEM: NUMBER OF ATOMS
8
ITEM: BOX BOUNDS xy xz yz pp pp pp
0.0000000000000000e+00 1.2000000000000000e+01 0.0000000000000000e+00
0.0000000000000000e+00 1.2000000000000000e+01 0.0000000000000000e+00
0.0000000000000000e+00 1.2000000000000000e+01 0.0000000000000000e+00
ITEM: ATOMS id type x y z
1 1 5.74046 6.33007 5.41224
2 2 7.13765 6.17173 7.19603
3 2 6.99131 4.6591 6.48592
4 2 5.76199 5.3298 7.42483
5 2 5.30281 7.3409 5.86648
6 2 4.86235 5.64183 4.93919
7 2 6.6291 6.51884 4.57517
8 3 6.45143 5.56858 6.69633
ITEM: TIMESTEP
100
ITEM: NUMBER OF ATOMS
8
ITEM: BOX BOUNDS xy xz yz pp pp pp
0.0000000000000000e+00 1.2000000000000000e+01 0.0000000000000000e+00
0.0000000000000000e+00 1.2000000000000000e+01 0.0000000000000000e+00
0.0000000000000000e+00 1.2000000000000000e+01 0.0000000000000000e+00
ITEM: ATOMS id type x y z
1 1 5.53557 6.24883 5.49962
2 2 7.49879 6.21566 6.62873
3 2 6.93972 4.62065 6.44886
4 2 6.29583 5.6131 7.60369
5 2 5.22753 7.35307 5.99981
6 2 4.61624 5.43517 5.47343
7 2 6.11488 6.22336 4.47208
8 3 6.60894 5.64562 6.61899
ITEM: TIMESTEP
200
ITEM: NUMBER OF ATOMS
8
ITEM: BOX BOUNDS xy xz yz pp pp pp
0.0000000000000000e+00 1.2000000000000000e+01 0.0000000000000000e+00
0.0000000000000000e+00 1.2000000000000000e+01 0.0000000000000000e+00
0.0000000000000000e+00 1.2000000000000000e+01 0.0000000000000000e+00
ITEM: ATOMS id type x y z
1 1 5.31723 6.09722 5.73239
2 2 7.58679 6.28272 6.0416
3 2 7.07032 4.72384 6.32541
4 2 6.83735 5.94278 7.44282
5 2 5.25519 7.33628 5.80879
6 2 4.50773 5.453 6.42522
7 2 5.63517 5.7561 4.53418
8 3 6.76311 5.76017 6.4429
ITEM: TIMESTEP
300
ITEM: NUMBER OF ATOMS
8
ITEM: BOX BOUNDS xy xz yz pp pp pp
0.0000000000000000e+00 1.2000000000000000e+01 0.0000000000000000e+00
0.0000000000000000e+00 1.2000000000000000e+01 0.0000000000000000e+00
0.0000000000000000e+00 1.2000000000000000e+01 0.0000000000000000e+00
ITEM: ATOMS id type x y z
1 1 5.26292 5.9446 6.06226
2 2 7.27144 6.20066 5.32545
3 2 7.13481 4.88397 6.35577
4 2 7.30216 6.41023 6.89485
5 2 4.91068 6.99977 5.74494
6 2 4.85465 5.62141 7.12778
7 2 4.9695 5.18033 5.1714
8 3 6.8371 5.89208 6.18542
ITEM: TIMESTEP
400
ITEM: NUMBER OF ATOMS
8
ITEM: BOX BOUNDS xy xz yz pp pp pp
0.0000000000000000e+00 1.2000000000000000e+01 0.0000000000000000e+00
0.0000000000000000e+00 1.2000000000000000e+01 0.0000000000000000e+00
0.0000000000000000e+00 1.2000000000000000e+01 0.0000000000000000e+00
ITEM: ATOMS id type x y z
1 1 5.30254 5.837 6.36322
2 2 6.92753 5.83451 4.94261
3 2 7.34484 5.19528 6.39683
4 2 7.26417 6.82686 6.20546
5 2 4.59409 6.84311 5.92261
6 2 5.19632 5.70802 7.62373
7 2 4.92495 4.76212 5.91416
8 3 6.82021 5.98412 5.92573
ITEM: TIMESTEP
500
ITEM: NUMBER OF ATOMS
8
ITEM: BOX BOUNDS xy xz yz pp pp pp
0.0000000000000000e+00 1.2000000000000000e+01 0.0000000000000000e+00
0.0000000000000000e+00 1.2000000000000000e+01 0.0000000000000000e+00
0.0000000000000000e+00 1.2000000000000000e+01 0.0000000000000000e+00
ITEM: ATOMS id type x y z
1 1 5.37216 5.75619 6.63348
2 2 6.55825 5.75264 4.75792
3 2 7.47335 5.39583 6.13396
4 2 7.04867 6.9958 5.71761
5 2 4.50516 6.3811 6.11556
6 2 5.66887 6.21228 7.7062
7 2 5.37312 4.54661 6.62395
8 3 6.73967 6.03828 5.71369
ITEM: TIMESTEP
600
ITEM: NUMBER OF ATOMS
8
ITEM: BOX BOUNDS xy xz yz pp pp pp
0.0000000000000000e+00 1.2000000000000000e+01 0.0000000000000000e+00
0.0000000000000000e+00 1.2000000000000000e+01 0.0000000000000000e+00
0.0000000000000000e+00 1.2000000000000000e+01 0.0000000000000000e+00
ITEM: ATOMS id type x y z
1 1 5.56174 5.73331 6.87166
2 2 6.36621 5.41984 4.74314
3 2 7.58124 5.87452 5.91587
4 2 6.5374 7.04174 5.23812
5 2 4.42067 5.94945 6.50006
6 2 6.01165 6.45173 7.74902
7 2 5.75294 4.48648 6.99796
8 3 6.59038 6.06025 5.5236
ITEM: TIMESTEP
700
ITEM: NUMBER OF ATOMS
8
ITEM: BOX BOUNDS xy xz yz pp pp pp
0.0000000000000000e+00 1.2000000000000000e+01 0.0000000000000000e+00
0.0000000000000000e+00 1.2000000000000000e+01 0.0000000000000000e+00
0.0000000000000000e+00 1.2000000000000000e+01 0.0000000000000000e+00
ITEM: ATOMS id type x y z
1 1 5.82134 5.73899 6.97882
2 2 6.24034 5.22151 4.81926
3 2 7.45758 6.17309 5.54971
4 2 5.97284 6.90873 5.04638
5 2 4.57021 5.53039 6.97852
6 2 6.18614 6.71447 7.67065
7 2 6.30907 4.69897 7.34308
8 3 6.3854 6.0542 5.42212
ITEM: TIMESTEP
800
ITEM: NUMBER OF ATOMS
8
ITEM: BOX BOUNDS xy xz yz pp pp pp
0.0000000000000000e+00 1.2000000000000000e+01 0.0000000000000000e+00
0.0000000000000000e+00 1.2000000000000000e+01 0.0000000000000000e+00
0.0000000000000000e+00 1.2000000000000000e+01 0.0000000000000000e+00
ITEM: ATOMS id type x y z
1 1 6.08018 5.7769 6.98558
2 2 5.97038 5.1322 4.9265
3 2 7.16622 6.37061 5.23789
4 2 5.4877 6.6704 5.11506
5 2 5.02745 5.27357 7.20035
6 2 6.13144 6.86798 7.47422
7 2 7.08866 5.18887 7.25796
8 3 6.17603 6.00664 5.43087
ITEM: TIMESTEP
900
ITEM: NUMBER OF ATOMS
8
ITEM: BOX BOUNDS xy xz yz pp pp pp
0.0000000000000000e+00 1.2000000000000000e+01 0.0000000000000000e+00
0.0000000000000000e+00 1.2000000000000000e+01 0.0000000000000000e+00
0.0000000000000000e+00 1.2000000000000000e+01 0.0000000000000000e+00
ITEM: ATOMS id type x y z
1 1 6.37738 5.86255 7.05134
2 2 6.22512 5.11177 4.89275
3 2 6.39093 6.75947 4.88481
4 2 4.96704 6.09677 5.33567
5 2 5.49181 5.10092 7.50012
6 2 6.26846 7.04162 7.43198
7 2 7.61807 5.42447 6.9602
8 3 5.94036 5.93832 5.39489
ITEM: TIMESTEP
1000
ITEM: NUMBER OF ATOMS
8
ITEM: BOX BOUNDS xy xz yz pp pp pp
0.0000000000000000e+00 1.2000000000000000e+01 0.0000000000000000e+00
0.0000000000000000e+00 1.2000000000000000e+01 0.0000000000000000e+00
0.0000000000000000e+00 1.2000000000000000e+01 0.0000000000000000e+00
ITEM: ATOMS id type x y z
1 1 6.70601 6.00145 6.89343
2 2 5.88995 4.99866 4.99898
3 2 5.72449 6.66814 4.83603
4 2 4.74447 5.69567 5.79579
5 2 6.72022 4.92981 7.4483
6 2 6.17483 6.91089 7.47184
7 2 7.77071 6.17568 6.54107
8 3 5.68233 5.84233 5.51053
ITEM: TIMESTEP
1100
ITEM: NUMBER OF ATOMS
8
ITEM: BOX BOUNDS xy xz yz pp pp pp
0.0000000000000000e+00 1.2000000000000000e+01 0.0000000000000000e+00
0.0000000000000000e+00 1.2000000000000000e+01 0.0000000000000000e+00
0.0000000000000000e+00 1.2000000000000000e+01 0.0000000000000000e+00
ITEM: ATOMS id type x y z
1 1 6.8328 6.12261 6.64856
2 2 5.78418 5.02727 4.99099
3 2 5.13655 6.56464 5.175
4 2 4.80843 5.37883 6.2557
5 2 7.2007 5.00525 7.04164
6 2 6.4061 6.79878 7.60013
7 2 7.69639 6.76345 5.92963
8 3 5.58397 5.73748 5.70649
ITEM: TIMESTEP
1200
ITEM: NUMBER OF ATOMS
8
ITEM: BOX BOUNDS xy xz yz pp pp pp
0.0000000000000000e+00 1.2000000000000000e+01 0.0000000000000000e+00
0.0000000000000000e+00 1.2000000000000000e+01 0.0000000000000000e+00
0.0000000000000000e+00 1.2000000000000000e+01 0.0000000000000000e+00
ITEM: ATOMS id type x y z
1 1 6.91029 6.19104 6.45434
2 2 5.61339 5.27564 4.90986
3 2 4.68885 6.36378 5.76532
4 2 5.19841 4.93193 6.45926
5 2 7.43111 5.16794 6.81993
6 2 6.56941 6.86246 7.38959
7 2 7.39343 6.87777 5.55222
8 3 5.53403 5.68889 5.86324
ITEM: TIMESTEP
1300
ITEM: NUMBER OF ATOMS
8
ITEM: BOX BOUNDS xy xz yz pp pp pp
0.0000000000000000e+00 1.2000000000000000e+01 0.0000000000000000e+00
0.0000000000000000e+00 1.2000000000000000e+01 0.0000000000000000e+00
0.0000000000000000e+00 1.2000000000000000e+01 0.0000000000000000e+00
ITEM: ATOMS id type x y z
1 1 6.9757 6.33014 6.27121
2 2 5.42596 4.95101 5.18292
3 2 4.59068 6.23043 5.95007
4 2 5.26692 4.95319 6.7694
5 2 7.73823 5.41351 5.93445
6 2 7.01628 6.59281 7.47769
7 2 7.18012 7.23918 5.56799
8 3 5.46046 5.58868 6.00549
ITEM: TIMESTEP
1400
ITEM: NUMBER OF ATOMS
8
ITEM: BOX BOUNDS xy xz yz pp pp pp
0.0000000000000000e+00 1.2000000000000000e+01 0.0000000000000000e+00
0.0000000000000000e+00 1.2000000000000000e+01 0.0000000000000000e+00
0.0000000000000000e+00 1.2000000000000000e+01 0.0000000000000000e+00
ITEM: ATOMS id type x y z
1 1 6.87072 6.35688 6.01017
2 2 5.14299 5.20329 5.32914
3 2 4.66722 5.94084 6.72292
4 2 5.80777 4.76945 6.77417
5 2 7.68775 5.62052 5.41156
6 2 7.29809 6.63469 7.15541
7 2 6.67034 7.40721 5.2807
8 3 5.53745 5.55406 6.22176
ITEM: TIMESTEP
1500
ITEM: NUMBER OF ATOMS
8
ITEM: BOX BOUNDS xy xz yz pp pp pp
0.0000000000000000e+00 1.2000000000000000e+01 0.0000000000000000e+00
0.0000000000000000e+00 1.2000000000000000e+01 0.0000000000000000e+00
0.0000000000000000e+00 1.2000000000000000e+01 0.0000000000000000e+00
ITEM: ATOMS id type x y z
1 1 6.83667 6.50901 5.73184
2 2 4.7076 5.41061 5.8998
3 2 5.34032 5.66511 7.44025
4 2 5.93825 4.53017 6.39875
5 2 7.30775 5.65106 5.11363
6 2 7.47036 6.83457 6.64107
7 2 6.2222 7.36161 5.17495
8 3 5.58426 5.44547 6.43687
ITEM: TIMESTEP
1600
ITEM: NUMBER OF ATOMS
8
ITEM: BOX BOUNDS xy xz yz pp pp pp
0.0000000000000000e+00 1.2000000000000000e+01 0.0000000000000000e+00
0.0000000000000000e+00 1.2000000000000000e+01 0.0000000000000000e+00
0.0000000000000000e+00 1.2000000000000000e+01 0.0000000000000000e+00
ITEM: ATOMS id type x y z
1 1 6.5682 6.48571 5.54239
2 2 4.87512 5.15146 6.22306
3 2 5.63441 5.76551 7.60498
4 2 6.34341 4.63718 6.5998
5 2 6.49237 5.93072 4.37985
6 2 7.79228 6.55868 5.98938
7 2 6.0065 7.5758 5.58654
8 3 5.78011 5.45158 6.60336
ITEM: TIMESTEP
1700
ITEM: NUMBER OF ATOMS
8
ITEM: BOX BOUNDS xy xz yz pp pp pp
0.0000000000000000e+00 1.2000000000000000e+01 0.0000000000000000e+00
0.0000000000000000e+00 1.2000000000000000e+01 0.0000000000000000e+00
0.0000000000000000e+00 1.2000000000000000e+01 0.0000000000000000e+00
ITEM: ATOMS id type x y z
1 1 6.3585 6.50505 5.40936
2 2 5.05508 4.96035 6.49111
3 2 5.86347 5.91647 7.64782
4 2 6.71398 4.79385 6.77792
5 2 5.58057 6.20057 4.54811
6 2 7.49379 6.22821 5.13166
7 2 6.22432 7.66657 5.70505
8 3 5.95709 5.42618 6.71183
ITEM: TIMESTEP
1800
ITEM: NUMBER OF ATOMS
8
ITEM: BOX BOUNDS xy xz yz pp pp pp
0.0000000000000000e+00 1.2000000000000000e+01 0.0000000000000000e+00
0.0000000000000000e+00 1.2000000000000000e+01 0.0000000000000000e+00
0.0000000000000000e+00 1.2000000000000000e+01 0.0000000000000000e+00
ITEM: ATOMS id type x y z
1 1 6.08871 6.441 5.3588
2 2 5.23128 5.06615 6.9047
3 2 6.5477 5.9612 7.64409
4 2 6.73622 4.7183 6.45375
5 2 5.03264 6.09974 4.85573
6 2 7.05223 6.04089 4.73467
7 2 6.12407 7.6153 5.77731
8 3 6.18 5.49448 6.74594
ITEM: TIMESTEP
1900
ITEM: NUMBER OF ATOMS
8
ITEM: BOX BOUNDS xy xz yz pp pp pp
0.0000000000000000e+00 1.2000000000000000e+01 0.0000000000000000e+00
0.0000000000000000e+00 1.2000000000000000e+01 0.0000000000000000e+00
0.0000000000000000e+00 1.2000000000000000e+01 0.0000000000000000e+00
ITEM: ATOMS id type x y z
1 1 5.79984 6.39663 5.37202
2 2 5.94333 5.9246 7.6161
3 2 7.47497 5.58889 6.83388
4 2 6.21063 4.56914 6.55614
5 2 4.80453 5.64246 5.11334
6 2 6.76831 6.20954 4.54064
7 2 5.55451 7.53245 5.74291
8 3 6.40055 5.53117 6.7334
ITEM: TIMESTEP
2000
ITEM: NUMBER OF ATOMS
8
ITEM: BOX BOUNDS xy xz yz pp pp pp
0.0000000000000000e+00 1.2000000000000000e+01 0.0000000000000000e+00
0.0000000000000000e+00 1.2000000000000000e+01 0.0000000000000000e+00
0.0000000000000000e+00 1.2000000000000000e+01 0.0000000000000000e+00
ITEM: ATOMS id type x y z
1 1 5.46893 6.22754 5.51318
2 2 7.17838 6.34544 7.22788
3 2 7.45977 5.11246 6.13019
4 2 6.15386 5.04584 7.20188
5 2 4.58842 5.45713 5.61846
6 2 5.94206 6.29474 4.46511
7 2 5.19991 7.3332 5.85343
8 3 6.67253 5.65292 6.6178
ITEM: TIMESTEP
2100
ITEM: NUMBER OF ATOMS
8
ITEM: BOX BOUNDS xy xz yz pp pp pp
0.0000000000000000e+00 1.2000000000000000e+01 0.0000000000000000e+00
0.0000000000000000e+00 1.2000000000000000e+01 0.0000000000000000e+00
0.0000000000000000e+00 1.2000000000000000e+01 0.0000000000000000e+00
ITEM: ATOMS id type x y z
1 1 5.34498 6.10951 5.7317
2 2 7.57038 6.32543 6.10143
3 2 7.10555 4.75872 6.33041
4 2 6.78197 5.93757 7.41353
5 2 4.5831 5.13925 5.94966
6 2 5.58726 6.25465 4.49948
7 2 4.88566 7.18818 6.3163
8 3 6.76875 5.7429 6.44109
ITEM: TIMESTEP
2200
ITEM: NUMBER OF ATOMS
8
ITEM: BOX BOUNDS xy xz yz pp pp pp
0.0000000000000000e+00 1.2000000000000000e+01 0.0000000000000000e+00
0.0000000000000000e+00 1.2000000000000000e+01 0.0000000000000000e+00
0.0000000000000000e+00 1.2000000000000000e+01 0.0000000000000000e+00
ITEM: ATOMS id type x y z
1 1 5.18258 6.0179 5.8982
2 2 7.44957 6.45397 5.70067
3 2 7.24005 4.85998 6.18347
4 2 7.10236 6.00999 7.2474
5 2 4.61801 5.26478 6.64756
6 2 5.1822 5.68822 4.73316
7 2 5.07375 7.11441 6.22461
8 3 6.88318 5.82874 6.30364
ITEM: TIMESTEP
2300
ITEM: NUMBER OF ATOMS
8
ITEM: BOX BOUNDS xy xz yz pp pp pp
0.0000000000000000e+00 1.2000000000000000e+01 0.0000000000000000e+00
0.0000000000000000e+00 1.2000000000000000e+01 0.0000000000000000e+00
0.0000000000000000e+00 1.2000000000000000e+01 0.0000000000000000e+00
ITEM: ATOMS id type x y z
1 1 5.18016 5.93371 6.11627
2 2 7.23026 6.67787 5.54873
3 2 7.2749 5.02542 5.70132
4 2 7.33226 6.04986 7.04254
5 2 4.74232 5.59355 7.20859
6 2 4.86726 5.17826 5.19835
7 2 4.92026 7.09007 5.70957
8 3 6.90638 5.87771 6.15883
ITEM: TIMESTEP
2400
ITEM: NUMBER OF ATOMS
8
ITEM: BOX BOUNDS xy xz yz pp pp pp
0.0000000000000000e+00 1.2000000000000000e+01 0.0000000000000000e+00
0.0000000000000000e+00 1.2000000000000000e+01 0.0000000000000000e+00
0.0000000000000000e+00 1.2000000000000000e+01 0.0000000000000000e+00
ITEM: ATOMS id type x y z
1 1 5.29203 5.83282 6.37674
2 2 6.76728 6.17056 4.88786
3 2 7.36297 5.04885 6.10728
4 2 7.36259 6.70684 6.3897
5 2 5.17402 5.48996 7.5425
6 2 4.7757 5.04191 5.597
7 2 4.76778 6.95964 6.05464
8 3 6.83129 5.96963 5.94576
ITEM: TIMESTEP
2500
ITEM: NUMBER OF ATOMS
8
ITEM: BOX BOUNDS xy xz yz pp pp pp
0.0000000000000000e+00 1.2000000000000000e+01 0.0000000000000000e+00
0.0000000000000000e+00 1.2000000000000000e+01 0.0000000000000000e+00
0.0000000000000000e+00 1.2000000000000000e+01 0.0000000000000000e+00
ITEM: ATOMS id type x y z
1 1 5.29965 5.76434 6.67992
2 2 6.63567 5.30405 4.9187
3 2 7.72878 5.88879 6.17736
4 2 6.74956 6.98076 5.32749
5 2 5.69623 5.38638 7.75277
6 2 4.84017 4.85826 6.00824
7 2 4.80399 6.79077 6.74969
8 3 6.80797 6.03737 5.6865
ITEM: TIMESTEP
2600
ITEM: NUMBER OF ATOMS
8
ITEM: BOX BOUNDS xy xz yz pp pp pp
0.0000000000000000e+00 1.2000000000000000e+01 0.0000000000000000e+00
0.0000000000000000e+00 1.2000000000000000e+01 0.0000000000000000e+00
0.0000000000000000e+00 1.2000000000000000e+01 0.0000000000000000e+00
ITEM: ATOMS id type x y z
1 1 5.55325 5.74009 6.78442
2 2 6.98218 5.1091 5.32036
3 2 7.45157 6.60831 5.83186
4 2 6.12478 6.43336 4.79566
5 2 6.21234 5.30789 7.76728
6 2 4.81385 4.85926 6.27503
7 2 4.93322 6.83592 7.04245
8 3 6.6078 6.06002 5.59886
ITEM: TIMESTEP
2700
ITEM: NUMBER OF ATOMS
8
ITEM: BOX BOUNDS xy xz yz pp pp pp
0.0000000000000000e+00 1.2000000000000000e+01 0.0000000000000000e+00
0.0000000000000000e+00 1.2000000000000000e+01 0.0000000000000000e+00
0.0000000000000000e+00 1.2000000000000000e+01 0.0000000000000000e+00
ITEM: ATOMS id type x y z
1 1 5.62635 5.72353 6.99116
2 2 7.25002 5.31135 5.33615
3 2 6.97306 6.9858 5.39281
4 2 5.93709 5.9954 4.6585
5 2 6.50317 5.31454 7.66404
6 2 4.88228 4.91775 6.57963
7 2 5.05014 6.73225 7.29215
8 3 6.54585 6.06542 5.44719
ITEM: TIMESTEP
2800
ITEM: NUMBER OF ATOMS
8
ITEM: BOX BOUNDS xy xz yz pp pp pp
0.0000000000000000e+00 1.2000000000000000e+01 0.0000000000000000e+00
0.0000000000000000e+00 1.2000000000000000e+01 0.0000000000000000e+00
0.0000000000000000e+00 1.2000000000000000e+01 0.0000000000000000e+00
ITEM: ATOMS id type x y z
1 1 5.85215 5.75618 6.89289
2 2 7.03632 5.2966 5.21619
3 2 6.88682 6.89468 5.36927
4 2 5.62991 6.04175 4.8178
5 2 6.84669 5.87477 7.65803
6 2 5.42257 4.56392 6.96841
7 2 5.01492 6.59423 7.15076
8 3 6.35441 6.0396 5.50462
ITEM: TIMESTEP
2900
ITEM: NUMBER OF ATOMS
8
ITEM: BOX BOUNDS xy xz yz pp pp pp
0.0000000000000000e+00 1.2000000000000000e+01 0.0000000000000000e+00
0.0000000000000000e+00 1.2000000000000000e+01 0.0000000000000000e+00
0.0000000000000000e+00 1.2000000000000000e+01 0.0000000000000000e+00
ITEM: ATOMS id type x y z
1 1 6.03343 5.77241 7.10993
2 2 6.92862 5.40544 4.84178
3 2 6.54886 6.97494 5.22912
4 2 5.38029 5.95339 4.75428
5 2 6.97762 6.36524 7.64975
6 2 6.11577 4.52972 7.22266
7 2 4.98019 6.28349 7.48232
8 3 6.20785 6.00949 5.33723
ITEM: TIMESTEP
3000
ITEM: NUMBER OF ATOMS
8
ITEM: BOX BOUNDS xy xz yz pp pp pp
0.0000000000000000e+00 1.2000000000000000e+01 0.0000000000000000e+00
0.0000000000000000e+00 1.2000000000000000e+01 0.0000000000000000e+00
0.0000000000000000e+00 1.2000000000000000e+01 0.0000000000000000e+00
ITEM: ATOMS id type x y z
1 1 6.34974 5.82171 7.12619
2 2 6.85621 5.88352 4.73484
3 2 5.49683 6.86587 5.09115
4 2 5.35589 5.25214 4.94438
5 2 7.29565 6.52897 7.1316
6 2 6.50737 4.71123 7.40729
7 2 5.28533 6.29483 7.50869
8 3 5.97341 5.96972 5.35055
ITEM: TIMESTEP
3100
ITEM: NUMBER OF ATOMS
8
ITEM: BOX BOUNDS xy xz yz pp pp pp
0.0000000000000000e+00 1.2000000000000000e+01 0.0000000000000000e+00
0.0000000000000000e+00 1.2000000000000000e+01 0.0000000000000000e+00
0.0000000000000000e+00 1.2000000000000000e+01 0.0000000000000000e+00
ITEM: ATOMS id type x y z
1 1 6.48391 5.94041 6.89141
2 2 6.43284 6.30418 4.70693
3 2 5.07806 6.56046 5.51434
4 2 5.45175 4.99108 5.13829
5 2 7.39607 6.80788 6.91286
6 2 6.97965 4.7602 7.10461
7 2 5.57418 6.16779 7.70564
8 3 5.86168 5.87422 5.51275
ITEM: TIMESTEP
3200
ITEM: NUMBER OF ATOMS
8
ITEM: BOX BOUNDS xy xz yz pp pp pp
0.0000000000000000e+00 1.2000000000000000e+01 0.0000000000000000e+00
0.0000000000000000e+00 1.2000000000000000e+01 0.0000000000000000e+00
0.0000000000000000e+00 1.2000000000000000e+01 0.0000000000000000e+00
ITEM: ATOMS id type x y z
1 1 6.69051 5.97615 6.89388
2 2 6.23669 5.7417 4.59996
3 2 5.07201 6.64634 5.43958
4 2 5.07515 5.01814 5.54529
5 2 6.86771 7.16983 6.941
6 2 7.69693 5.32982 6.81965
7 2 5.98679 5.68955 7.79833
8 3 5.70068 5.84638 5.50648
ITEM: TIMESTEP
3300
ITEM: NUMBER OF ATOMS
8
ITEM: BOX BOUNDS xy xz yz pp pp pp
0.0000000000000000e+00 1.2000000000000000e+01 0.0000000000000000e+00
0.0000000000000000e+00 1.2000000000000000e+01 0.0000000000000000e+00
0.0000000000000000e+00 1.2000000000000000e+01 0.0000000000000000e+00
ITEM: ATOMS id type x y z
1 1 6.80332 6.07069 6.82266
2 2 5.90571 6.0736 4.60829
3 2 4.87428 6.39674 5.84784
4 2 5.25551 4.81743 5.52011
5 2 6.99562 7.28524 6.733
6 2 7.71838 5.36074 6.48109
7 2 6.17019 5.67676 7.85018
8 3 5.61476 5.77237 5.5688
ITEM: TIMESTEP
3400
ITEM: NUMBER OF ATOMS
8
ITEM: BOX BOUNDS xy xz yz pp pp pp
0.0000000000000000e+00 1.2000000000000000e+01 0.0000000000000000e+00
0.0000000000000000e+00 1.2000000000000000e+01 0.0000000000000000e+00
0.0000000000000000e+00 1.2000000000000000e+01 0.0000000000000000e+00
ITEM: ATOMS id type x y z
1 1 6.89226 6.1133 6.70048
2 2 5.34914 6.49546 4.97757
3 2 4.74578 5.65686 6.25649
4 2 5.66652 4.83107 5.20493
5 2 7.15014 7.24698 6.33295
6 2 7.82492 5.32386 6.53251
7 2 6.33682 6.03678 7.79517
8 3 5.53518 5.74089 5.65883
ITEM: TIMESTEP
3500
ITEM: NUMBER OF ATOMS
8
ITEM: BOX BOUNDS xy xz yz pp pp pp
0.0000000000000000e+00 1.2000000000000000e+01 0.0000000000000000e+00
0.0000000000000000e+00 1.2000000000000000e+01 0.0000000000000000e+00
0.0000000000000000e+00 1.2000000000000000e+01 0.0000000000000000e+00
ITEM: ATOMS id type x y z
1 1 6.91873 6.21705 6.49007
2 2 4.83819 6.46242 5.895
3 2 5.22982 4.91849 6.4423
4 2 5.47754 5.38396 4.82969
5 2 7.31178 7.21929 5.94123
6 2 7.68318 5.26291 6.4149
7 2 6.66635 6.44005 7.62997
8 3 5.50522 5.65399 5.81733
ITEM: TIMESTEP
3600
ITEM: NUMBER OF ATOMS
8
ITEM: BOX BOUNDS xy xz yz pp pp pp
0.0000000000000000e+00 1.2000000000000000e+01 0.0000000000000000e+00
0.0000000000000000e+00 1.2000000000000000e+01 0.0000000000000000e+00
0.0000000000000000e+00 1.2000000000000000e+01 0.0000000000000000e+00
ITEM: ATOMS id type x y z
1 1 6.95613 6.28319 6.2591
2 2 5.03764 5.48348 6.97191
3 2 5.63175 4.66202 5.61265
4 2 4.8423 6.10291 5.34638
5 2 7.29049 6.95587 5.26675
6 2 7.6969 5.36512 6.56745
7 2 6.68781 7.09728 7.24573
8 3 5.47779 5.60443 6.00566
ITEM: TIMESTEP
3700
ITEM: NUMBER OF ATOMS
8
ITEM: BOX BOUNDS xy xz yz pp pp pp
0.0000000000000000e+00 1.2000000000000000e+01 0.0000000000000000e+00
0.0000000000000000e+00 1.2000000000000000e+01 0.0000000000000000e+00
0.0000000000000000e+00 1.2000000000000000e+01 0.0000000000000000e+00
ITEM: ATOMS id type x y z
1 1 6.89174 6.37089 6.06727
2 2 5.71561 4.67627 6.74952
3 2 5.07703 5.26612 5.27316
4 2 4.80541 6.06385 6.71706
5 2 7.1917 6.45496 4.91543
6 2 7.68552 5.65578 6.64609
7 2 6.6952 7.37387 6.62484
8 3 5.52864 5.54933 6.1597
ITEM: TIMESTEP
3800
ITEM: NUMBER OF ATOMS
8
ITEM: BOX BOUNDS xy xz yz pp pp pp
0.0000000000000000e+00 1.2000000000000000e+01 0.0000000000000000e+00
0.0000000000000000e+00 1.2000000000000000e+01 0.0000000000000000e+00
0.0000000000000000e+00 1.2000000000000000e+01 0.0000000000000000e+00
ITEM: ATOMS id type x y z
1 1 6.88196 6.43326 5.90444
2 2 5.68206 4.49411 6.00735
3 2 4.666 5.73281 5.81727
4 2 5.35295 5.50583 7.32205
5 2 7.16316 6.18044 4.70523
6 2 7.77198 6.03672 6.71693
7 2 6.54982 7.61658 6.15316
8 3 5.53508 5.49582 6.29989
ITEM: TIMESTEP
3900
ITEM: NUMBER OF ATOMS
8
ITEM: BOX BOUNDS xy xz yz pp pp pp
0.0000000000000000e+00 1.2000000000000000e+01 0.0000000000000000e+00
0.0000000000000000e+00 1.2000000000000000e+01 0.0000000000000000e+00
0.0000000000000000e+00 1.2000000000000000e+01 0.0000000000000000e+00
ITEM: ATOMS id type x y z
1 1 6.85231 6.48386 5.78722
2 2 5.60471 4.49579 5.98142
3 2 4.6423 5.83812 6.26616
4 2 5.65342 5.28692 7.40148
5 2 6.92487 6.25501 4.61964
6 2 7.77157 6.15226 6.43275
7 2 6.46759 7.61961 5.99231
8 3 5.56663 5.45098 6.39234
ITEM: TIMESTEP
4000
ITEM: NUMBER OF ATOMS
8
ITEM: BOX BOUNDS xy xz yz pp pp pp
0.0000000000000000e+00 1.2000000000000000e+01 0.0000000000000000e+00
0.0000000000000000e+00 1.2000000000000000e+01 0.0000000000000000e+00
0.0000000000000000e+00 1.2000000000000000e+01 0.0000000000000000e+00
ITEM: ATOMS id type x y z
1 1 6.80374 6.50678 5.69831
2 2 5.81921 4.43123 6.35144
3 2 4.71217 5.57053 6.05015
4 2 5.53865 5.62039 7.48148
5 2 6.37743 6.58873 4.54195
6 2 7.89724 5.93826 5.82486
7 2 6.59217 7.49366 6.38478
8 3 5.61321 5.43365 6.46514
ITEM: TIMESTEP
4100
ITEM: NUMBER OF ATOMS
8
ITEM: BOX BOUNDS xy xz yz pp pp pp
0.0000000000000000e+00 1.2000000000000000e+01 0.0000000000000000e+00
0.0000000000000000e+00 1.2000000000000000e+01 0.0000000000000000e+00
0.0000000000000000e+00 1.2000000000000000e+01 0.0000000000000000e+00
ITEM: ATOMS id type x y z
1 1 6.65348 6.53645 5.57492
2 2 5.83816 4.40156 6.3767
3 2 4.75516 5.60598 6.41494
4 2 5.92021 5.59411 7.57217
5 2 6.00753 6.61484 4.54545
6 2 7.73031 5.94761 5.36081
7 2 6.76128 7.49518 6.29765
8 3 5.72371 5.40958 6.56511
ITEM: TIMESTEP
4200
ITEM: NUMBER OF ATOMS
8
ITEM: BOX BOUNDS xy xz yz pp pp pp
0.0000000000000000e+00 1.2000000000000000e+01 0.0000000000000000e+00
0.0000000000000000e+00 1.2000000000000000e+01 0.0000000000000000e+00
0.0000000000000000e+00 1.2000000000000000e+01 0.0000000000000000e+00
ITEM: ATOMS id type x y z
1 1 6.4507 6.43233 5.52598
2 2 5.37585 4.64271 6.2249
3 2 5.28647 6.00166 7.20302
4 2 6.61315 5.01324 7.22959
5 2 5.78793 6.44152 4.5412
6 2 7.59259 6.26444 5.31138
7 2 6.3234 7.53846 6.07997
8 3 5.88252 5.47257 6.60127
ITEM: TIMESTEP
4300
ITEM: NUMBER OF ATOMS
8
ITEM: BOX BOUNDS xy xz yz pp pp pp
0.0000000000000000e+00 1.2000000000000000e+01 0.0000000000000000e+00
0.0000000000000000e+00 1.2000000000000000e+01 0.0000000000000000e+00
0.0000000000000000e+00 1.2000000000000000e+01 0.0000000000000000e+00
ITEM: ATOMS id type x y z
1 1 6.30093 6.60148 5.26451
2 2 5.30162 4.61035 6.68966
3 2 5.6079 5.95409 7.4846
4 2 6.94693 4.98924 7.20202
5 2 5.14702 6.49969 4.78077
6 2 7.23252 6.01836 4.71901
7 2 6.40841 7.65167 5.94327
8 3 6.02198 5.35484 6.7866
ITEM: TIMESTEP
4400
ITEM: NUMBER OF ATOMS
8
ITEM: BOX BOUNDS xy xz yz pp pp pp
0.0000000000000000e+00 1.2000000000000000e+01 0.0000000000000000e+00
0.0000000000000000e+00 1.2000000000000000e+01 0.0000000000000000e+00
0.0000000000000000e+00 1.2000000000000000e+01 0.0000000000000000e+00
ITEM: ATOMS id type x y z
1 1 6.02283 6.4895 5.29716
2 2 5.86694 4.47924 6.63098
3 2 5.71895 5.88898 7.53368
4 2 7.24174 5.30199 7.12848
5 2 4.86418 6.81497 5.37916
6 2 6.27505 5.84754 4.29551
7 2 6.80565 7.32763 5.54474
8 3 6.22737 5.44572 6.78332
ITEM: TIMESTEP
4500
ITEM: NUMBER OF ATOMS
8
ITEM: BOX BOUNDS xy xz yz pp pp pp
0.0000000000000000e+00 1.2000000000000000e+01 0.0000000000000000e+00
0.0000000000000000e+00 1.2000000000000000e+01 0.0000000000000000e+00
0.0000000000000000e+00 1.2000000000000000e+01 0.0000000000000000e+00
ITEM: ATOMS id type x y z
1 1 5.91465 6.35718 5.46264
2 2 5.9684 4.56747 6.65286
3 2 5.93784 5.95217 7.51614
4 2 7.38422 5.49258 6.84186
5 2 4.83174 6.86896 5.74279
6 2 5.75027 5.62253 4.48166
7 2 6.78948 7.19096 5.13661
8 3 6.31872 5.54535 6.66572
ITEM: TIMESTEP
4600
ITEM: NUMBER OF ATOMS
8
ITEM: BOX BOUNDS xy xz yz pp pp pp
0.0000000000000000e+00 1.2000000000000000e+01 0.0000000000000000e+00
0.0000000000000000e+00 1.2000000000000000e+01 0.0000000000000000e+00
0.0000000000000000e+00 1.2000000000000000e+01 0.0000000000000000e+00
ITEM: ATOMS id type x y z
1 1 5.68407 6.42195 5.2975
2 2 5.78265 4.99026 7.2836
3 2 6.91434 6.13979 7.42664
4 2 7.26649 4.8375 6.4593
5 2 4.57535 6.57661 5.77024
6 2 5.86351 5.58947 4.44809
7 2 6.36122 7.45248 5.31865
8 3 6.48934 5.50314 6.76921
ITEM: TIMESTEP
4700
ITEM: NUMBER OF ATOMS
8
ITEM: BOX BOUNDS xy xz yz pp pp pp
0.0000000000000000e+00 1.2000000000000000e+01 0.0000000000000000e+00
0.0000000000000000e+00 1.2000000000000000e+01 0.0000000000000000e+00
0.0000000000000000e+00 1.2000000000000000e+01 0.0000000000000000e+00
ITEM: ATOMS id type x y z
1 1 5.63914 6.2631 5.51779
2 2 6.19734 5.83098 7.5264
3 2 7.49698 5.93801 6.53853
4 2 6.47918 4.56058 6.56832
5 2 4.49282 6.03898 5.88488
6 2 5.85577 5.76539 4.4238
7 2 5.85019 7.43187 5.55228
8 3 6.55194 5.62713 6.61443
ITEM: TIMESTEP
4800
ITEM: NUMBER OF ATOMS
8
ITEM: BOX BOUNDS xy xz yz pp pp pp
0.0000000000000000e+00 1.2000000000000000e+01 0.0000000000000000e+00
0.0000000000000000e+00 1.2000000000000000e+01 0.0000000000000000e+00
0.0000000000000000e+00 1.2000000000000000e+01 0.0000000000000000e+00
ITEM: ATOMS id type x y z
1 1 5.28209 6.2342 5.54699
2 2 7.39068 6.45124 6.71252
3 2 7.31592 4.92339 6.107
4 2 6.49296 5.22183 7.52208
5 2 4.36923 5.43122 5.82328
6 2 5.67696 6.19973 4.35296
7 2 5.19202 7.45111 5.82611
8 3 6.82271 5.64138 6.60264
ITEM: TIMESTEP
4900
ITEM: NUMBER OF ATOMS
8
ITEM: BOX BOUNDS xy xz yz pp pp pp
0.0000000000000000e+00 1.2000000000000000e+01 0.0000000000000000e+00
0.0000000000000000e+00 1.2000000000000000e+01 0.0000000000000000e+00
0.0000000000000000e+00 1.2000000000000000e+01 0.0000000000000000e+00
ITEM: ATOMS id type x y z
1 1 5.32511 6.09838 5.78643
2 2 7.45356 6.08086 5.71419
3 2 6.88349 4.75539 6.55351
4 2 6.90548 6.32488 7.2982
5 2 4.65633 5.11799 6.05923
6 2 5.58466 6.19054 4.62708
7 2 5.02776 7.05789 6.46121
8 3 6.78427 5.75694 6.39154
ITEM: TIMESTEP
5000
ITEM: NUMBER OF ATOMS
8
ITEM: BOX BOUNDS xy xz yz pp pp pp
0.0000000000000000e+00 1.2000000000000000e+01 0.0000000000000000e+00
0.0000000000000000e+00 1.2000000000000000e+01 0.0000000000000000e+00
0.0000000000000000e+00 1.2000000000000000e+01 0.0000000000000000e+00
ITEM: ATOMS id type x y z
1 1 5.16413 6.05447 5.8941
2 2 7.45759 6.08705 5.50295
3 2 7.12075 4.79162 6.53067
4 2 7.1512 6.44957 7.1329
5 2 4.56962 5.23651 6.5747
6 2 5.06478 5.84262 4.67956
7 2 4.82727 7.17746 6.25694
8 3 6.93132 5.78671 6.31103
ITEM: TIMESTEP
5100
ITEM: NUMBER OF ATOMS
8
ITEM: BOX BOUNDS xy xz yz pp pp pp
0.0000000000000000e+00 1.2000000000000000e+01 0.0000000000000000e+00
0.0000000000000000e+00 1.2000000000000000e+01 0.0000000000000000e+00
0.0000000000000000e+00 1.2000000000000000e+01 0.0000000000000000e+00
ITEM: ATOMS id type x y z
1 1 5.29095 5.95063 6.09507
2 2 7.32223 6.39384 5.43258
3 2 7.16994 4.8893 6.09332
4 2 7.18036 6.18065 7.12928
5 2 4.84044 5.56466 7.17382
6 2 4.85309 5.27149 5.15557
7 2 5.00761 7.10263 5.72338
8 3 6.82045 5.87984 6.15384
ITEM: TIMESTEP
5200
ITEM: NUMBER OF ATOMS
8
ITEM: BOX BOUNDS xy xz yz pp pp pp
0.0000000000000000e+00 1.2000000000000000e+01 0.0000000000000000e+00
0.0000000000000000e+00 1.2000000000000000e+01 0.0000000000000000e+00
0.0000000000000000e+00 1.2000000000000000e+01 0.0000000000000000e+00
ITEM: ATOMS id type x y z
1 1 5.1031 5.91248 6.21595
2 2 7.31976 6.2483 5.1791
3 2 7.32476 4.95877 6.18326
4 2 7.40202 6.54222 6.7465
5 2 5.18394 5.6861 7.39969
6 2 4.90281 4.92437 5.59104
7 2 4.78207 7.02676 5.91363
8 3 6.92667 5.91041 6.03878
ITEM: TIMESTEP
5300
ITEM: NUMBER OF ATOMS
8
ITEM: BOX BOUNDS xy xz yz pp pp pp
0.0000000000000000e+00 1.2000000000000000e+01 0.0000000000000000e+00
0.0000000000000000e+00 1.2000000000000000e+01 0.0000000000000000e+00
0.0000000000000000e+00 1.2000000000000000e+01 0.0000000000000000e+00
ITEM: ATOMS id type x y z
1 1 5.20113 5.82001 6.43161
2 2 7.16009 5.80738 4.92043
3 2 7.41149 5.23902 6.36331
4 2 7.38606 6.85599 6.16033
5 2 5.21426 5.76601 7.63933
6 2 4.6825 4.84277 5.92973
7 2 4.57082 6.85504 6.21305
8 3 6.88606 5.9832 5.8572
ITEM: TIMESTEP
5400
ITEM: NUMBER OF ATOMS
8
ITEM: BOX BOUNDS xy xz yz pp pp pp
0.0000000000000000e+00 1.2000000000000000e+01 0.0000000000000000e+00
0.0000000000000000e+00 1.2000000000000000e+01 0.0000000000000000e+00
0.0000000000000000e+00 1.2000000000000000e+01 0.0000000000000000e+00
ITEM: ATOMS id type x y z
1 1 5.27917 5.79503 6.59874
2 2 6.93588 5.80498 4.77816
3 2 7.459 5.3849 6.25079
4 2 7.21739 6.95338 5.82703
5 2 5.74497 5.98106 7.74974
6 2 5.00555 4.59293 6.33982
7 2 4.42701 6.53628 6.03046
8 3 6.79982 6.01052 5.74615
ITEM: TIMESTEP
5500
ITEM: NUMBER OF ATOMS
8
ITEM: BOX BOUNDS xy xz yz pp pp pp
0.0000000000000000e+00 1.2000000000000000e+01 0.0000000000000000e+00
0.0000000000000000e+00 1.2000000000000000e+01 0.0000000000000000e+00
0.0000000000000000e+00 1.2000000000000000e+01 0.0000000000000000e+00
ITEM: ATOMS id type x y z
1 1 5.37781 5.74251 6.74326
2 2 6.65155 5.71299 4.68462
3 2 7.5145 5.54205 6.04888
4 2 7.01545 7.02984 5.54503
5 2 5.93524 6.23766 7.70273
6 2 5.47452 4.54969 6.82883
7 2 4.43262 6.27913 6.25222
8 3 6.707 6.04405 5.62849
ITEM: TIMESTEP
5600
ITEM: NUMBER OF ATOMS
8
ITEM: BOX BOUNDS xy xz yz pp pp pp