LAMMPS (2 Aug 2023 - Update 1)
OMP_NUM_THREADS environment is not set. Defaulting to 1 thread. (src/comm.cpp:98)
  using 1 OpenMP thread(s) per MPI task
Loaded 1 plugins from /home/rverma7/.conda/envs/deepmd/lib/deepmd_lmp
#13 Butadiene
units           metal
boundary        p p p
atom_style      atomic

neighbor        2.0 bin
neigh_modify    delay 0 every 1 check yes

read_data       conf.lmp
Reading data file ...
  triclinic box = (0 0 0) to (12 12 12) with tilt (0 0 0)
  1 by 1 by 1 MPI processor grid
  reading atoms ...
  8 atoms
  read_data CPU = 0.000 seconds
mass            1 10.8
mass            2 1.0
mass            3 14.0

variable        sysvol          equal vol
variable        sysmass         equal mass(all)/6.0221367e+23
variable        sysdensity      equal v_sysmass/v_sysvol/1.0e-24
variable	out_freq 	equal 100

pair_style      deepmd frozen_model_1.pb frozen_model_2.pb out_file md.out out_freq 10 atomic relative 1.0
Summary of lammps deepmd module ...
  >>> Info of deepmd-kit:
  installed to:       /home/rverma7/.conda/envs/deepmd
  source:             v2.2.10
  source branch:      HEAD
  source commit:      f8a0b3128
  source commit at:   2024-04-06 14:46:23 -0400
  support model ver.: 1.1 
  build variant:      cuda
  build with tf inc:  /home/rverma7/.conda/envs/deepmd/include;/home/rverma7/.conda/envs/deepmd/include
  build with tf lib:  /home/rverma7/.conda/envs/deepmd/lib/libtensorflow_cc.so
  set tf intra_op_parallelism_threads: 0
  set tf inter_op_parallelism_threads: 0
  >>> Info of lammps module:
  use deepmd-kit at:  /home/rverma7/.conda/envs/deepmdpair_coeff	* *

#
velocity        all create 300.0 2345678 rot no dist gaussian
fix             1 all nvt temp 300.0 300.0 0.05
fix             2 all plumed plumedfile plumed.dat outfile PLUMED.log

timestep        0.0005
thermo_style    custom step pe ke etotal v_sysdensity temp press vol
thermo          10

dump            10 all custom 100 traj.dump id type x y z
dump		101 all xyz 20 traj.xyz
dump_modify	101 element B H N

fix		extra all print 20 "$(step), $(ke), $(pe), $(etotal), $(temp), $(press), $(vol)" file logfile screen no

restart	        100000 dump.restart

run             150000

CITE-CITE-CITE-CITE-CITE-CITE-CITE-CITE-CITE-CITE-CITE-CITE-CITE

Your simulation uses code contributions which should be cited:

- USER-DEEPMD package:

@article{Wang_ComputPhysCommun_2018_v228_p178,
  author = {Wang, Han and Zhang, Linfeng and Han, Jiequn and E, Weinan},
  doi = {10.1016/j.cpc.2018.03.016},
  url = {https://doi.org/10.1016/j.cpc.2018.03.016},
  year = 2018,
  month = {jul},
  publisher = {Elsevier {BV}},
  volume = 228,
  journal = {Comput. Phys. Commun.},
  title = {{DeePMD-kit: A deep learning package for many-body potential energy representation and molecular dynamics}},
  pages = {178--184}
}
@misc{Zeng_JChemPhys_2023_v159_p054801,
  title  = {{DeePMD-kit v2: A software package for deep potential models}},
  author =   {Jinzhe Zeng and Duo Zhang and Denghui Lu and Pinghui Mo and Zeyu Li
         and Yixiao Chen and Mari{\'a}n Rynik and Li'ang Huang and Ziyao Li and 
         Shaochen Shi and Yingze Wang and Haotian Ye and Ping Tuo and Jiabin
         Yang and Ye Ding and Yifan Li and Davide Tisi and Qiyu Zeng and Han 
         Bao and Yu Xia and Jiameng Huang and Koki Muraoka and Yibo Wang and 
         Junhan Chang and Fengbo Yuan and Sigbj{\o}rn L{\o}land Bore and Chun
         Cai and Yinnian Lin and Bo Wang and Jiayan Xu and Jia-Xin Zhu and 
         Chenxing Luo and Yuzhi Zhang and Rhys E A Goodall and Wenshuo Liang
         and Anurag Kumar Singh and Sikai Yao and Jingchao Zhang and Renata
         Wentzcovitch and Jiequn Han and Jie Liu and Weile Jia and Darrin M
         York and Weinan E and Roberto Car and Linfeng Zhang and Han Wang},
  journal =  {J. Chem. Phys.},
  volume =   159,
  issue =    5,  
  year =    2023,
  pages  =   054801,
  doi =      {10.1063/5.0155600},
}

CITE-CITE-CITE-CITE-CITE-CITE-CITE-CITE-CITE-CITE-CITE-CITE-CITE

Generated 0 of 3 mixed pair_coeff terms from geometric mixing rule
Neighbor list info ...
  update: every = 1 steps, delay = 0 steps, check = yes
  max neighbors/atom: 2000, page size: 100000
  master list distance cutoff = 8
  ghost atom cutoff = 8
  binsize = 4, bins = 3 3 3
  1 neighbor lists, perpetual/occasional/extra = 1 0 0
  (1) pair deepmd, perpetual
      attributes: full, newton on
      pair build: full/bin/atomonly
      stencil: full/bin/3d
      bin: standard
Per MPI rank memory allocation (min/avg/max) = 3.063 | 3.063 | 3.063 Mbytes
   Step         PotEng         KinEng         TotEng      v_sysdensity       Temp          Press          Volume    
         0  -36.561617      0.2714463     -36.29017       0.029597591    300           -370.48981      1728         
        10  -36.514021      0.22477634    -36.289244      0.029597591    248.42078     -730.87676      1728         
        20  -36.458532      0.17071327    -36.287818      0.029597591    188.67076     -9.7864832      1728         
        30  -36.525057      0.23962852    -36.285428      0.029597591    264.83528      298.18613      1728         
        40  -36.544467      0.26294082    -36.281526      0.029597591    290.59981     -1437.3161      1728         
        50  -36.49077       0.21462219    -36.276148      0.029597591    237.1985       1655.7027      1728         
        60  -36.490554      0.22520557    -36.265349      0.029597591    248.89516     -956.67586      1728         
        70  -36.508408      0.24969323    -36.258714      0.029597591    275.9587       700.76188      1728         
        80  -36.478623      0.22841407    -36.250209      0.029597591    252.44117      449.69309      1728         
        90  -36.491644      0.25266591    -36.238978      0.029597591    279.24408      74.865616      1728         
       100  -36.51533       0.28909828    -36.226232      0.029597591    319.50881     -839.48397      1728         
       110  -36.471267      0.26425585    -36.207011      0.029597591    292.05317      1129.29        1728         
       120  -36.423151      0.23086629    -36.192284      0.029597591    255.15133     -2132.3967      1728         
       130  -36.471256      0.29598652    -36.175269      0.029597591    327.12163      969.79835      1728         
       140  -36.465984      0.31146773    -36.154516      0.029597591    344.23131     -461.5474       1728         
       150  -36.459236      0.32736218    -36.131874      0.029597591    361.79772     -304.66867      1728         
       160  -36.491178      0.39109768    -36.100081      0.029597591    432.23762      442.6765       1728         
       170  -36.433044      0.35628224    -36.076761      0.029597591    393.7599       622.87773      1728         
       180  -36.426556      0.37036132    -36.056195      0.029597591    409.31998     -732.93144      1728         
       190  -36.488077      0.45635071    -36.031726      0.029597591    504.35468      1475.9         1728         
       200  -36.417984      0.40684545    -36.011139      0.029597591    449.64191     -816.32613      1728         
       210  -36.461263      0.47189763    -35.989365      0.029597591    521.53699     -280.81273      1728         
       220  -36.410072      0.43377249    -35.9763        0.029597591    479.40143      463.04892      1728         
       230  -36.298555      0.3299497     -35.968605      0.029597591    364.65743     -1532.5327      1728         
       240  -36.477786      0.51272603    -35.96506       0.029597591    566.66017     -43.138596      1728         
       250  -36.393115      0.43197658    -35.961138      0.029597591    477.41661      48.357225      1728         
       260  -36.345846      0.38634559    -35.959501      0.029597591    426.98565     -412.38522      1728         
       270  -36.481079      0.51814194    -35.962937      0.029597591    572.64578      177.10481      1728         
       280  -36.409525      0.43401639    -35.975508      0.029597591    479.67099      785.53331      1728         
       290  -36.273273      0.28809117    -35.985182      0.029597591    318.39576     -832.83064      1728         
       300  -36.471874      0.46909763    -36.002776      0.029597591    518.44246      1955.6595      1728         
       310  -36.377635      0.3616754     -36.01596       0.029597591    399.72038     -1153.7517      1728         
       320  -36.383118      0.35139895    -36.031719      0.029597591    388.36294      698.3095       1728         
       330  -36.385171      0.33447439    -36.050697      0.029597591    369.65807     -97.231461      1728         
       340  -36.345811      0.27626433    -36.069547      0.029597591    305.32484     -519.41512      1728         
       350  -36.364307      0.28328996    -36.081017      0.029597591    313.0895      -1046.9502      1728         
       360  -36.420511      0.33166881    -36.088842      0.029597591    366.55737      1022.2654      1728         
       370  -36.35788       0.25886804    -36.099012      0.029597591    286.09862     -1663.0076      1728         
       380  -36.435396      0.32728127    -36.108115      0.029597591    361.7083       1608.7613      1728         
       390  -36.444413      0.33021406    -36.114199      0.029597591    364.94959     -378.96409      1728         
       400  -36.372174      0.25163348    -36.120541      0.029597591    278.10305      105.50975      1728         
       410  -36.388251      0.26703162    -36.12122       0.029597591    295.12093      885.18151      1728         
       420  -36.481606      0.35440298    -36.127203      0.029597591    391.68297      146.78576      1728         
       430  -36.416447      0.28594072    -36.130507      0.029597591    316.01909     -762.73592      1728         
       440  -36.368034      0.23386391    -36.13417       0.029597591    258.46428      1451.5899      1728         
       450  -36.434297      0.29407181    -36.140226      0.029597591    325.00551     -1351.4603      1728         
       460  -36.431975      0.29306017    -36.138915      0.029597591    323.88745     -584.6526       1728         
       470  -36.375668      0.23395674    -36.141712      0.029597591    258.56687      504.53551      1728         
       480  -36.419144      0.27399607    -36.145148      0.029597591    302.81798     -1289.2709      1728         
       490  -36.468354      0.31822872    -36.150126      0.029597591    351.7035       531.19964      1728         
       500  -36.467226      0.31500256    -36.152223      0.029597591    348.13798      708.58053      1728         
       510  -36.384196      0.23422838    -36.149968      0.029597591    258.86709     -442.37889      1728         
       520  -36.402399      0.24638514    -36.156014      0.029597591    272.30263      811.97058      1728         
       530  -36.504287      0.34356452    -36.160722      0.029597591    379.7044       811.38089      1728         
       540  -36.388491      0.22610351    -36.162387      0.029597591    249.88756     -1476.1612      1728         
       550  -36.376838      0.21076958    -36.166069      0.029597591    232.94063      1727.4844      1728         
       560  -36.454569      0.28874498    -36.165824      0.029597591    319.11834     -1023.871       1728         
       570  -36.41184       0.24264478    -36.169195      0.029597591    268.16881     -536.02384      1728         
       580  -36.336043      0.16430752    -36.171736      0.029597591    181.59118      173.50732      1728         
       590  -36.387845      0.21186123    -36.175984      0.029597591    234.14711     -240.87564      1728         
       600  -36.452979      0.27412176    -36.178857      0.029597591    302.95689     -1140.6333      1728         
       610  -36.423066      0.24780084    -36.175265      0.029597591    273.86725      1901.9956      1728         
       620  -36.372051      0.19588442    -36.176166      0.029597591    216.48969     -1475.8012      1728         
       630  -36.45666       0.27595783    -36.180702      0.029597591    304.98609      1340.8786      1728         
       640  -36.423716      0.24022786    -36.183488      0.029597591    265.49766      534.04973      1728         
       650  -36.365501      0.17987001    -36.185631      0.029597591    198.79071     -215.18367      1728         
       660  -36.444945      0.26317197    -36.181773      0.029597591    290.85528      82.549625      1728         
       670  -36.455207      0.2721016     -36.183106      0.029597591    300.72423      832.03024      1728         
       680  -36.379138      0.19573097    -36.183407      0.029597591    216.3201      -1771.3624      1728         
       690  -36.409491      0.22530055    -36.18419       0.029597591    249.00013      1124.5451      1728         
       700  -36.401267      0.21533435    -36.185933      0.029597591    237.98558     -865.1797       1728         
       710  -36.420938      0.2402255     -36.180712      0.029597591    265.49505     -694.07488      1728         
       720  -36.40632       0.22701966    -36.1793        0.029597591    250.90008      799.63382      1728         
       730  -36.425209      0.24876016    -36.176449      0.029597591    274.92748     -561.55776      1728         
       740  -36.482091      0.30904386    -36.173048      0.029597591    341.55248     -290.32086      1728         
       750  -36.401436      0.23188171    -36.169555      0.029597591    256.27357      1364.2641      1728         
       760  -36.365793      0.20418662    -36.161606      0.029597591    225.66521     -293.82399      1728         
       770  -36.454177      0.29538518    -36.158792      0.029597591    326.45703      348.37997      1728         
       780  -36.413911      0.26319103    -36.15072       0.029597591    290.87635      1180.9053      1728         
       790  -36.392007      0.24901357    -36.142994      0.029597591    275.20755     -1488.7552      1728         
       800  -36.429951      0.29663034    -36.133321      0.029597591    327.83317      918.31577      1728         
       810  -36.330435      0.20862889    -36.121806      0.029597591    230.57477     -634.07968      1728         
       820  -36.324926      0.21161404    -36.113312      0.029597591    233.87392     -709.83663      1728         
       830  -36.386744      0.28458436    -36.10216       0.029597591    314.52006      164.82358      1728         
       840  -36.332031      0.24199935    -36.090032      0.029597591    267.45549      240.78644      1728         
       850  -36.348477      0.27027845    -36.078198      0.029597591    298.7093      -1173.1805      1728         
       860  -36.378472      0.32435844    -36.054114      0.029597591    358.47801      1524.0519      1728         
       870  -36.313079      0.2750606     -36.038019      0.029597591    303.99449     -1523.2283      1728         
       880  -36.335637      0.31118658    -36.02445       0.029597591    343.9206       1236.1319      1728         
       890  -36.348208      0.33704499    -36.011163      0.029597591    372.49907      782.54851      1728         
       900  -36.279732      0.28167145    -35.99806       0.029597591    311.30073      218.02986      1728         
       910  -36.36532       0.38321531    -35.982105      0.029597591    423.5261       209.55655      1728         
       920  -36.35769       0.38693265    -35.970757      0.029597591    427.63447      803.40112      1728         
       930  -36.253146      0.28916358    -35.963982      0.029597591    319.58098     -2122.6388      1728         
       940  -36.319507      0.36106599    -35.958441      0.029597591    399.04687      1196.6366      1728         
       950  -36.354142      0.39658922    -35.957553      0.029597591    438.30681     -798.07387      1728         
       960  -36.247339      0.29414493    -35.953194      0.029597591    325.08631     -187.01383      1728         
       970  -36.28414       0.32589728    -35.958243      0.029597591    360.17873      822.68745      1728         
       980  -36.334459      0.37099472    -35.963464      0.029597591    410.02001     -897.25612      1728         
       990  -36.319647      0.34886772    -35.97078       0.029597591    385.56544     -890.18507      1728         
      1000  -36.380114      0.39701703    -35.983097      0.029597591    438.77963      1242.2634      1728         
      1010  -36.309314      0.31128448    -35.99803       0.029597591    344.02879     -710.93983      1728         
      1020  -36.345366      0.32987969    -36.015486      0.029597591    364.58005      809.02051      1728         
      1030  -36.365368      0.3286909     -36.036677      0.029597591    363.26621      1425.0343      1728         
      1040  -36.322463      0.25825633    -36.064206      0.029597591    285.42256     -1219.4805      1728         
      1050  -36.438395      0.34796284    -36.090432      0.029597591    384.56538      843.6575       1728         
      1060  -36.46665       0.35483573    -36.111814      0.029597591    392.16124     -351.81311      1728         
      1070  -36.311235      0.17563457    -36.1356        0.029597591    194.10974     -623.89164      1728         
      1080  -36.357517      0.20206705    -36.155449      0.029597591    223.32268      602.0464       1728         
      1090  -36.466357      0.29017074    -36.176186      0.029597591    320.69408     -34.101413      1728         
      1100  -36.370667      0.18208768    -36.18858       0.029597591    201.24165     -1612.4373      1728         
      1110  -36.356404      0.16021614    -36.196188      0.029597591    177.06942      1365.6766      1728         
      1120  -36.428662      0.22133973    -36.207322      0.029597591    244.62267     -1390.2074      1728         
      1130  -36.450959      0.23574423    -36.215215      0.029597591    260.54239      464.41678      1728         
      1140  -36.350493      0.13158543    -36.218907      0.029597591    145.42703      917.34703      1728         
      1150  -36.389497      0.16381097    -36.225686      0.029597591    181.0424       235.91825      1728         
      1160  -36.470085      0.24335644    -36.226729      0.029597591    268.95533     -152.51312      1728         
      1170  -36.442535      0.21457031    -36.227965      0.029597591    237.14116      1473.4262      1728         
      1180  -36.375627      0.14878574    -36.226841      0.029597591    164.43665     -1624.5229      1728         
      1190  -36.48199       0.25443886    -36.227551      0.029597591    281.20352      833.11523      1728         
      1200  -36.434934      0.20884161    -36.226092      0.029597591    230.80985     -254.41162      1728         
      1210  -36.38852       0.16982675    -36.218694      0.029597591    187.69099     -737.2829       1728         
      1220  -36.380199      0.16478368    -36.215416      0.029597591    182.11743      312.94102      1728         
      1230  -36.426886      0.21281025    -36.214076      0.029597591    235.19596      33.720246      1728         
      1240  -36.391595      0.18272376    -36.208871      0.029597591    201.94465     -1367.9629      1728         
      1250  -36.382685      0.1806277     -36.202057      0.029597591    199.62809      1221.5105      1728         
      1260  -36.408567      0.22041068    -36.188157      0.029597591    243.59589     -848.2015       1728         
      1270  -36.488155      0.30709407    -36.181061      0.029597591    339.39759     -65.081778      1728         
      1280  -36.359032      0.18854772    -36.170484      0.029597591    208.38123      1421.1529      1728         
      1290  -36.354659      0.18920587    -36.165453      0.029597591    209.10862     -210.67218      1728         
      1300  -36.46345       0.30537618    -36.158074      0.029597591    337.49899      369.97749      1728         
      1310  -36.45734       0.31621614    -36.141124      0.029597591    349.47922      744.15312      1728         
      1320  -36.396569      0.2683938     -36.128176      0.029597591    296.6264      -1063.1003      1728         
      1330  -36.402706      0.28630852    -36.116397      0.029597591    316.42559      185.66297      1728         
      1340  -36.373518      0.26541913    -36.108099      0.029597591    293.33882      473.58145      1728         
      1350  -36.346721      0.24712886    -36.099592      0.029597591    273.12458     -1697.368       1728         
      1360  -36.335684      0.25140249    -36.084281      0.029597591    277.84775      1103.2477      1728         
      1370  -36.330937      0.25339593    -36.077541      0.029597591    280.05089     -833.11451      1728         
      1380  -36.365719      0.29600002    -36.069719      0.029597591    327.13654     -366.05881      1728         
      1390  -36.34203       0.28008351    -36.061946      0.029597591    309.54576      521.49265      1728         
      1400  -36.28126       0.22970722    -36.051553      0.029597591    253.87034     -347.56461      1728         
      1410  -36.35936       0.32143749    -36.037922      0.029597591    355.2498      -1108.8527      1728         
      1420  -36.375088      0.34620916    -36.028879      0.029597591    382.62723      1863.0717      1728         
      1430  -36.293603      0.2710252     -36.022578      0.029597591    299.5346      -1166.8915      1728         
      1440  -36.331644      0.31199972    -36.019645      0.029597591    344.81927      1590.9079      1728         
      1450  -36.343676      0.32700834    -36.016668      0.029597591    361.40665      412.54055      1728         
      1460  -36.322346      0.31260213    -36.009743      0.029597591    345.48504     -350.8292       1728         
      1470  -36.399427      0.39002345    -36.009404      0.029597591    431.05038     -71.293587      1728         
      1480  -36.410494      0.40015715    -36.010336      0.029597591    442.25007      515.21742      1728         
      1490  -36.310152      0.29805173    -36.0121        0.029597591    329.40408     -1458.9103      1728         
      1500  -36.351806      0.33403991    -36.017766      0.029597591    369.17789      1579.8832      1728         
      1510  -36.347278      0.32747811    -36.0198        0.029597591    361.92584     -1189.5846      1728         
      1520  -36.314516      0.29245319    -36.022063      0.029597591    323.21662     -453.96136      1728         
      1530  -36.327233      0.30112749    -36.026106      0.029597591    332.80338      538.58519      1728         
      1540  -36.320817      0.29029811    -36.030519      0.029597591    320.83485     -710.26763      1728         
      1550  -36.327233      0.29302302    -36.03421       0.029597591    323.84639     -113.94672      1728         
      1560  -36.318922      0.28715665    -36.031765      0.029597591    317.36293      1134.5208      1728         
      1570  -36.267087      0.23459601    -36.032491      0.029597591    259.27338     -1587.2796      1728         
      1580  -36.336928      0.30411522    -36.032813      0.029597591    336.10539      310.59179      1728         
      1590  -36.401889      0.36763278    -36.034256      0.029597591    406.30442      278.02722      1728         
      1600  -36.287628      0.2517183     -36.035909      0.029597591    278.19678     -730.76306      1728         
      1610  -36.276938      0.24383076    -36.033107      0.029597591    269.47955      1777.3218      1728         
      1620  -36.369045      0.33474844    -36.034297      0.029597591    369.96095      7.3895967      1728         
      1630  -36.311949      0.27640084    -36.035548      0.029597591    305.47571     -409.82413      1728         
      1640  -36.299218      0.26286687    -36.036351      0.029597591    290.51808      720.68907      1728         
      1650  -36.366474      0.32847926    -36.037995      0.029597591    363.03231     -569.3996       1728         
      1660  -36.307757      0.27662864    -36.031128      0.029597591    305.72747     -700.71351      1728         
      1670  -36.247703      0.21489922    -36.032804      0.029597591    237.50468      1773.2992      1728         
      1680  -36.285434      0.25059153    -36.034842      0.029597591    276.95149     -1648.9809      1728         
      1690  -36.368713      0.33120404    -36.037509      0.029597591    366.04371      238.3302       1728         
      1700  -36.289108      0.25060363    -36.038504      0.029597591    276.96486     -262.88342      1728         
      1710  -36.261736      0.22633727    -36.035399      0.029597591    250.1459      -899.54797      1728         
      1720  -36.336527      0.29854181    -36.037985      0.029597591    329.94571      83.906273      1728         
      1730  -36.393299      0.35195538    -36.041344      0.029597591    388.9779       864.65187      1728         
      1740  -36.330242      0.29203064    -36.038211      0.029597591    322.74962     -1805.6774      1728         
      1750  -36.387203      0.34228814    -36.044915      0.029597591    378.29375      1722.1762      1728         
      1760  -36.375867      0.33034531    -36.045522      0.029597591    365.09465     -457.34215      1728         
      1770  -36.334826      0.27663227    -36.058194      0.029597591    305.73148      657.39318      1728         
      1780  -36.296422      0.22842104    -36.068001      0.029597591    252.44887      1148.7843      1728         
      1790  -36.373674      0.29609057    -36.077583      0.029597591    327.23662      192.64456      1728         
      1800  -36.426166      0.33894187    -36.087224      0.029597591    374.59549     -760.46475      1728         
      1810  -36.342942      0.25038432    -36.092558      0.029597591    276.72248      948.61445      1728         
      1820  -36.278077      0.17750728    -36.10057       0.029597591    196.17944     -1402.7043      1728         
      1830  -36.394655      0.28182094    -36.112834      0.029597591    311.46596      177.0283       1728         
      1840  -36.352956      0.22811256    -36.124843      0.029597591    252.10794     -60.126627      1728         
      1850  -36.304679      0.16985294    -36.134826      0.029597591    187.71993     -955.2073       1728         
      1860  -36.374418      0.23359556    -36.140823      0.029597591    258.1677       293.11249      1728         
      1870  -36.398746      0.24535863    -36.153388      0.029597591    271.16814     -256.29385      1728         
      1880  -36.365286      0.20622604    -36.15906       0.029597591    227.91916     -1007.7733      1728         
      1890  -36.456027      0.2857571     -36.17027       0.029597591    315.81616      758.47178      1728         
      1900  -36.418317      0.23649251    -36.181824      0.029597591    261.36939     -66.372241      1728         
      1910  -36.414495      0.22467054    -36.189825      0.029597591    248.30385      255.71813      1728         
      1920  -36.411176      0.20700945    -36.204167      0.029597591    228.78497      1816.5104      1728         
      1930  -36.410742      0.19112377    -36.219619      0.029597591    211.22826     -592.60307      1728         
      1940  -36.462161      0.23504747    -36.227114      0.029597591    259.77234      445.20534      1728         
      1950  -36.477178      0.23775106    -36.239427      0.029597591    262.76032     -91.437773      1728         
      1960  -36.371976      0.1313615     -36.240614      0.029597591    145.17954     -456.99086      1728         
      1970  -36.411965      0.16363497    -36.24833       0.029597591    180.84788     -80.056477      1728         
      1980  -36.398806      0.1415315     -36.257274      0.029597591    156.41934      186.58566      1728         
      1990  -36.368471      0.1057981     -36.262673      0.029597591    116.9271      -1525.598       1728         
      2000  -36.393468      0.12618914    -36.267279      0.029597591    139.46309      774.62679      1728         
      2010  -36.418026      0.15127341    -36.266752      0.029597591    167.186       -876.14931      1728         
      2020  -36.415086      0.14728221    -36.267804      0.029597591    162.77497     -56.15425       1728         
      2030  -36.451306      0.18443531    -36.266871      0.029597591    203.83623      146.91343      1728         
      2040  -36.450573      0.18525891    -36.265314      0.029597591    204.74648     -3.4130545      1728         
      2050  -36.437858      0.17599395    -36.261864      0.029597591    194.50692     -51.971257      1728         
      2060  -36.400101      0.14142291    -36.258678      0.029597591    156.29932      1947.0043      1728         
      2070  -36.444285      0.18538805    -36.258897      0.029597591    204.8892      -624.82141      1728         
      2080  -36.465492      0.21701539    -36.248477      0.029597591    239.84344      893.64545      1728         
      2090  -36.45488       0.21844702    -36.236433      0.029597591    241.42567     -1.6313204      1728         
      2100  -36.411694      0.19187072    -36.219823      0.029597591    212.05378     -884.12022      1728         
      2110  -36.374802      0.17634309    -36.198459      0.029597591    194.89279      98.823666      1728         
      2120  -36.397012      0.21516064    -36.181851      0.029597591    237.7936      -131.84351      1728         
      2130  -36.337664      0.17566051    -36.162004      0.029597591    194.1384      -1286.1237      1728         
      2140  -36.2933        0.15003355    -36.143266      0.029597591    165.81573      858.9137       1728         
      2150  -36.368231      0.24297496    -36.125256      0.029597591    268.53372     -833.84155      1728         
      2160  -36.359889      0.26357835    -36.096311      0.029597591    291.30441     -690.85772      1728         
      2170  -36.281493      0.21260008    -36.068893      0.029597591    234.96369      676.54125      1728         
      2180  -36.390499      0.34600164    -36.044498      0.029597591    382.39788     -912.71352      1728         
      2190  -36.394205      0.37179268    -36.022413      0.029597591    410.90191      587.1508       1728         
      2200  -36.235729      0.22671814    -36.00901       0.029597591    250.56684      1767.0431      1728         
      2210  -36.279796      0.28316939    -35.996627      0.029597591    312.95625      234.0266       1728         
      2220  -36.439027      0.45004096    -35.988986      0.029597591    497.3812       136.64134      1728         
      2230  -36.390192      0.41391548    -35.976277      0.029597591    457.45564      735.98703      1728         
      2240  -36.299074      0.33391143    -35.965163      0.029597591    369.0359      -1735.1128      1728         
      2250  -36.349775      0.38567973    -35.964095      0.029597591    426.24975      1013.4415      1728         
      2260  -36.297148      0.33618296    -35.960965      0.029597591    371.54636     -633.59726      1728         
      2270  -36.235694      0.27291512    -35.962779      0.029597591    301.62333     -721.50749      1728         
      2280  -36.24032       0.27655953    -35.963761      0.029597591    305.65109     -40.820924      1728         
      2290  -36.260966      0.29346635    -35.9675        0.029597591    324.33636     -294.52938      1728         
      2300  -36.295519      0.32693986    -35.968579      0.029597591    361.33098     -1278.9711      1728         
      2310  -36.268802      0.30084516    -35.967957      0.029597591    332.49135      1520.8192      1728         
      2320  -36.217262      0.24877798    -35.968484      0.029597591    274.94718     -1200.1061      1728         
      2330  -36.370681      0.39769253    -35.972988      0.029597591    439.52619      617.29065      1728         
      2340  -36.284672      0.30816502    -35.976506      0.029597591    340.58119      518.3523       1728         
      2350  -36.208966      0.2229407     -35.986025      0.029597591    246.39204      171.44914      1728         
      2360  -36.293891      0.30500367    -35.988888      0.029597591    337.0873       447.70122      1728         
      2370  -36.364568      0.36885201    -35.995716      0.029597591    407.65191      1131.0229      1728         
      2380  -36.258227      0.25584516    -36.002382      0.029597591    282.75776     -1051.6755      1728         
      2390  -36.359715      0.34854924    -36.011166      0.029597591    385.21347      762.05282      1728         
      2400  -36.316936      0.29581284    -36.021123      0.029597591    326.92967     -647.72526      1728         
      2410  -36.292002      0.26730086    -36.024702      0.029597591    295.41849     -705.37842      1728         
      2420  -36.266343      0.23219915    -36.034144      0.029597591    256.6244       377.03725      1728         
      2430  -36.310524      0.26331218    -36.047212      0.029597591    291.01024     -545.60393      1728         
      2440  -36.30957       0.2525612     -36.057009      0.029597591    279.12835     -514.22787      1728         
      2450  -36.382076      0.31368824    -36.068388      0.029597591    346.6854       445.68327      1728         
      2460  -36.316611      0.24255668    -36.074054      0.029597591    268.07145     -1196.6193      1728         
      2470  -36.413769      0.3291978     -36.084571      0.029597591    363.82643     -197.14186      1728         
      2480  -36.445847      0.34751276    -36.098334      0.029597591    384.06796      512.94126      1728         
      2490  -36.361852      0.25120134    -36.11065       0.029597591    277.62544     -341.64077      1728         
      2500  -36.325211      0.19994728    -36.125264      0.029597591    220.97992      1615.1044      1728         
      2510  -36.379587      0.24337724    -36.13621       0.029597591    268.97832      743.02303      1728         
      2520  -36.378221      0.23057963    -36.147642      0.029597591    254.83452     -101.78123      1728         
      2530  -36.413214      0.25511192    -36.158102      0.029597591    281.94739      303.30714      1728         
      2540  -36.38883       0.22143504    -36.167395      0.029597591    244.728       -350.66829      1728         
      2550  -36.367801      0.19283266    -36.174968      0.029597591    213.11692     -782.55192      1728         
      2560  -36.352349      0.17504658    -36.177302      0.029597591    193.4599       814.47933      1728         
      2570  -36.332749      0.14762097    -36.185128      0.029597591    163.14936     -1249.9915      1728         
      2580  -36.32968       0.13895569    -36.190725      0.029597591    153.57257     -126.60851      1728         
      2590  -36.343417      0.14843973    -36.194978      0.029597591    164.05425     -107.52003      1728         
      2600  -36.361466      0.16410869    -36.197357      0.029597591    181.37144     -737.9347       1728         
      2610  -36.378015      0.18555452    -36.19246       0.029597591    205.07318     -112.80561      1728         
      2620  -36.435632      0.24507134    -36.190561      0.029597591    270.85063      255.13193      1728         
      2630  -36.448925      0.26024261    -36.188683      0.029597591    287.61778     -874.70945      1728         
      2640  -36.401675      0.21906359    -36.182611      0.029597591    242.1071       1559.7741      1728         
      2650  -36.322466      0.13650743    -36.185959      0.029597591    150.86677      829.27436      1728         
      2660  -36.412298      0.22900869    -36.183289      0.029597591    253.09833      527.60002      1728         
      2670  -36.435998      0.26654451    -36.169453      0.029597591    294.58258      676.856        1728         
      2680  -36.422561      0.26471373    -36.157847      0.029597591    292.55922     -257.79202      1728         
      2690  -36.349351      0.20643729    -36.142914      0.029597591    228.15262     -972.46826      1728         
      2700  -36.286129      0.15817768    -36.127951      0.029597591    174.81654      593.59612      1728         
      2710  -36.285605      0.17715643    -36.108449      0.029597591    195.79168     -1424.0821      1728         
      2720  -36.312423      0.21984959    -36.092574      0.029597591    242.97578     -208.04571      1728         
      2730  -36.234229      0.16239813    -36.071831      0.029597591    179.48095     -204.55225      1728         
      2740  -36.279098      0.22774306    -36.051355      0.029597591    251.69957     -547.45458      1728         
      2750  -36.34288       0.32610274    -36.016777      0.029597591    360.4058      -304.13768      1728         
      2760  -36.37643       0.40247921    -35.97395       0.029597591    444.81638     -129.74344      1728         
      2770  -36.34332       0.40351219    -35.939808      0.029597591    445.95803     -425.82652      1728         
      2780  -36.283588      0.36492405    -35.918664      0.029597591    403.31076      2263.8644      1728         
      2790  -36.178382      0.26701995    -35.911362      0.029597591    295.10804      1301.0126      1728         
      2800  -36.366264      0.46258929    -35.903675      0.029597591    511.2495       331.75552      1728         
      2810  -36.366706      0.48326349    -35.883442      0.029597591    534.09844      490.23162      1728         
      2820  -36.233842      0.3563984     -35.877444      0.029597591    393.88829     -1157.0301      1728         
      2830  -36.284684      0.41285668    -35.871828      0.029597591    456.28547     -409.48574      1728         
      2840  -36.221698      0.33900343    -35.882695      0.029597591    374.66353     -199.69774      1728         
      2850  -36.063106      0.1772336     -35.885872      0.029597591    195.87697     -1033.532       1728         
      2860  -36.180172      0.296515      -35.883657      0.029597591    327.7057      -360.47054      1728         
      2870  -36.285845      0.39254535    -35.8933        0.029597591    433.83757     -219.21767      1728         
      2880  -36.20703       0.31269367    -35.894336      0.029597591    345.58622     -1355.1301      1728         
      2890  -36.328957      0.43158982    -35.897367      0.029597591    476.98917      544.59576      1728         
      2900  -36.393399      0.47888653    -35.914512      0.029597591    529.26106     -64.289373      1728         
      2910  -36.266271      0.34481095    -35.92146       0.029597591    381.08194      1150.8384      1728         
      2920  -36.176561      0.23563531    -35.940925      0.029597591    260.42201      2216.4055      1728         
      2930  -36.37731       0.40909389    -35.968216      0.029597591    452.12686      359.415        1728         
      2940  -36.408667      0.42324854    -35.985419      0.029597591    467.77046     -496.58226      1728         
      2950  -36.385943      0.37799915    -36.007944      0.029597591    417.76124      424.3051       1728         
      2960  -36.255765      0.23566326    -36.020102      0.029597591    260.45291     -1134.149       1728         
      2970  -36.233819      0.19070338    -36.043115      0.029597591    210.76365      275.58871      1728         
      2980  -36.254159      0.19956384    -36.054595      0.029597591    220.55615     -951.07967      1728         
      2990  -36.268248      0.20410738    -36.064141      0.029597591    225.57763     -1102.9021      1728         
      3000  -36.246998      0.17025635    -36.076742      0.029597591    188.16578     -187.19485      1728         
      3010  -36.350271      0.2713545     -36.078917      0.029597591    299.89854     -75.997478      1728         
      3020  -36.415501      0.33240495    -36.083096      0.029597591    367.37095     -1226.8342      1728         
      3030  -36.401891      0.30767596    -36.094215      0.029597591    340.04068      1617.1336      1728         
      3040  -36.329918      0.23242052    -36.097497      0.029597591    256.86906      325.27759      1728         
      3050  -36.30475       0.19345972    -36.11129       0.029597591    213.80993      1667.0464      1728         
      3060  -36.402204      0.28521187    -36.116992      0.029597591    315.21358      920.66483      1728         
      3070  -36.460321      0.34316394    -36.117157      0.029597591    379.26168     -390.38031      1728         
      3080  -36.370337      0.24787796    -36.122459      0.029597591    273.95248     -610.38674      1728         
      3090  -36.323548      0.20176276    -36.121785      0.029597591    222.98638      770.89731      1728         
      3100  -36.3025        0.17455975    -36.12794       0.029597591    192.92186     -1526.5148      1728         
      3110  -36.278252      0.15193951    -36.126312      0.029597591    167.92217     -69.397834      1728         
      3120  -36.263643      0.13633425    -36.127309      0.029597591    150.67537     -814.59524      1728         
      3130  -36.294982      0.1673329     -36.127649      0.029597591    184.93481     -875.64075      1728         
      3140  -36.345431      0.21998127    -36.125449      0.029597591    243.12131      354.8863       1728         
      3150  -36.385632      0.26924356    -36.116388      0.029597591    297.56555     -409.55277      1728         
      3160  -36.433052      0.33156587    -36.101486      0.029597591    366.4436      -349.85273      1728         
      3170  -36.373565      0.28624346    -36.087321      0.029597591    316.35368      1428.7987      1728         
      3180  -36.266443      0.17699904    -36.089444      0.029597591    195.61774      1198.9773      1728         
      3190  -36.380967      0.28849346    -36.092473      0.029597591    318.84036      765.49566      1728         
      3200  -36.419595      0.34528783    -36.074307      0.029597591    381.60899      881.07609      1728         
      3210  -36.356703      0.29772894    -36.058974      0.029597591    329.04733     -935.26388      1728         
      3220  -36.367161      0.32054875    -36.046612      0.029597591    354.26758      180.2528       1728         
      3230  -36.238655      0.19724471    -36.04141       0.029597591    217.99307     -610.35767      1728         
      3240  -36.184909      0.14828039    -36.036629      0.029597591    163.87814     -1206.6458      1728         
      3250  -36.212795      0.18513678    -36.027659      0.029597591    204.61149     -591.27774      1728         
      3260  -36.250366      0.2404555     -36.009911      0.029597591    265.74924     -381.65199      1728         
      3270  -36.248066      0.25523635    -35.99283       0.029597591    282.0849      -828.16462      1728         
      3280  -36.327709      0.37878713    -35.948922      0.029597591    418.63211      683.02269      1728         
      3290  -36.367072      0.4770157     -35.890056      0.029597591    527.19344     -708.83166      1728         
      3300  -36.299002      0.46563308    -35.833369      0.029597591    514.61347      1569.3032      1728         
      3310  -36.060826      0.26299921    -35.797827      0.029597591    290.66434      2380.012       1728         
      3320  -36.226033      0.45725355    -35.768779      0.029597591    505.35249      930.3153       1728         
      3330  -36.38655       0.66578041    -35.720769      0.029597591    735.81448     -376.52596      1728         
      3340  -36.297142      0.61097219    -35.68617       0.029597591    675.24093      852.74286      1728         
      3350  -36.035047      0.36271097    -35.672336      0.029597591    400.86488     -1968.5935      1728         
      3360  -36.092316      0.42098602    -35.67133       0.029597591    465.26994      194.24305      1728         
      3370  -36.023501      0.3507729     -35.672728      0.029597591    387.67104     -1235.2648      1728         
      3380  -35.896258      0.22190121    -35.674357      0.029597591    245.24321     -690.75648      1728         
      3390  -35.944981      0.27065762    -35.674324      0.029597591    299.12836     -409.10461      1728         
      3400  -36.108807      0.42866863    -35.680139      0.029597591    473.76069     -539.63321      1728         
      3410  -36.189194      0.49881175    -35.690382      0.029597591    551.28223     -1454.6302      1728         
      3420  -36.286412      0.58704716    -35.699365      0.029597591    648.79921      1207.2072      1728         
      3430  -36.296473      0.56833321    -35.72814       0.029597591    628.11673     -654.00568      1728         
      3440  -36.173137      0.41494533    -35.758191      0.029597591    458.59382      2154.087       1728         
      3450  -36.135494      0.35303826    -35.782456      0.029597591    390.17469      2509.1993      1728         
      3460  -36.366367      0.5530544     -35.813313      0.029597591    611.23072      128.94989      1728         
      3470  -36.375074      0.52917937    -35.845894      0.029597591    584.84425     -340.86764      1728         
      3480  -36.303714      0.43911579    -35.864598      0.029597591    485.3068       451.00779      1728         
      3490  -36.191285      0.29807146    -35.893214      0.029597591    329.42588     -1790.194       1728         
      3500  -36.104957      0.19664794    -35.90831       0.029597591    217.33352      258.50604      1728         
      3510  -36.119678      0.20723662    -35.912442      0.029597591    229.03603     -782.28995      1728         
      3520  -36.138752      0.21978004    -35.918972      0.029597591    242.89891     -1424.1373      1728         
      3530  -36.189865      0.26671235    -35.923152      0.029597591    294.76808     -48.323815      1728         
      3540  -36.286184      0.35019927    -35.935984      0.029597591    387.03707     -804.89253      1728         
      3550  -36.359883      0.4207108     -35.939172      0.029597591    464.96577     -509.56864      1728         
      3560  -36.39103       0.44622778    -35.944802      0.029597591    493.1669       1164.6065      1728         
      3570  -36.290632      0.33628622    -35.954346      0.029597591    371.66049      826.21423      1728         
      3580  -36.200216      0.22767792    -35.972539      0.029597591    251.62758      1745.9795      1728         
      3590  -36.361484      0.37175427    -35.989729      0.029597591    410.85945      1716.3168      1728         
      3600  -36.416944      0.41444505    -36.002499      0.029597591    458.04092     -1483.9414      1728         
      3610  -36.337344      0.32744404    -36.0099        0.029597591    361.8882       569.66174      1728         
      3620  -36.262635      0.24002083    -36.022614      0.029597591    265.26885     -420.30779      1728         
      3630  -36.21747       0.17863095    -36.038839      0.029597591    197.42131     -1167.387       1728         
      3640  -36.21046       0.16325389    -36.047206      0.029597591    180.42672     -505.40249      1728         
      3650  -36.239666      0.18714918    -36.052517      0.029597591    206.83558     -544.85151      1728         
      3660  -36.268241      0.21199975    -36.056241      0.029597591    234.30021     -1466.1395      1728         
      3670  -36.29937       0.23729283    -36.062077      0.029597591    262.25388      1201.8064      1728         
      3680  -36.415859      0.35446606    -36.061393      0.029597591    391.75268     -1344.4678      1728         
      3690  -36.408486      0.34062589    -36.06786       0.029597591    376.45665      986.40293      1728         
      3700  -36.209803      0.13182847    -36.077975      0.029597591    145.69563      1781.3794      1728         
      3710  -36.264585      0.181061      -36.083524      0.029597591    200.10698      1372.692       1728         
      3720  -36.458674      0.36740871    -36.091266      0.029597591    406.05678     -64.546931      1728         
      3730  -36.396897      0.2996535     -36.097244      0.029597591    331.17434      677.07234      1728         
      3740  -36.301613      0.2045233     -36.097089      0.029597591    226.0373      -1518.7091      1728         
      3750  -36.323408      0.21734345    -36.106064      0.029597591    240.20602      555.07421      1728         
      3760  -36.252727      0.14463354    -36.108093      0.029597591    159.84768     -1281.4153      1728         
      3770  -36.211986      0.10194792    -36.110038      0.029597591    112.67192     -803.6402       1728         
      3780  -36.250981      0.13893333    -36.112048      0.029597591    153.54786     -347.19091      1728         
      3790  -36.31874       0.20301649    -36.115723      0.029597591    224.37199     -118.15989      1728         
      3800  -36.38959       0.27934308    -36.110247      0.029597591    308.72744     -1027.0561      1728         
      3810  -36.434596      0.33592838    -36.098668      0.029597591    371.265        1138.0606      1728         
      3820  -36.310035      0.21830583    -36.091729      0.029597591    241.26963      18.182636      1728         
      3830  -36.247511      0.14996846    -36.097542      0.029597591    165.74379      2013.479       1728         
      3840  -36.389766      0.29092969    -36.098836      0.029597591    321.53286      1200.1215      1728         
      3850  -36.399227      0.31228198    -36.086945      0.029597591    345.13122     -431.19402      1728         
      3860  -36.375154      0.30297731    -36.072177      0.029597591    334.84778      71.268288      1728         
      3870  -36.348079      0.28787838    -36.0602        0.029597591    318.16059     -160.6207       1728         
      3880  -36.240241      0.18464758    -36.055593      0.029597591    204.07083     -1202.5429      1728         
      3890  -36.197676      0.14817991    -36.049496      0.029597591    163.76709     -116.59186      1728         
      3900  -36.205721      0.16673977    -36.038981      0.029597591    184.27929     -823.44225      1728         
      3910  -36.265252      0.24325649    -36.021995      0.029597591    268.84488     -1236.2504      1728         
      3920  -36.320727      0.31756502    -36.003162      0.029597591    350.96999      877.82483      1728         
      3930  -36.307918      0.34542501    -35.962493      0.029597591    381.7606      -1367.4873      1728         
      3940  -36.330834      0.40431303    -35.926521      0.029597591    446.8431       813.28391      1728         
      3950  -36.229438      0.33264105    -35.896797      0.029597591    367.63188      1680.1947      1728         
      3960  -36.081806      0.20300859    -35.878797      0.029597591    224.36326      1516.7386      1728         
      3970  -36.2769        0.4153872     -35.861513      0.029597591    459.08218      561.40549      1728         
      3980  -36.353114      0.52305238    -35.830061      0.029597591    578.07276      858.95146      1728         
      3990  -36.196374      0.39361052    -35.802763      0.029597591    435.01479     -1847.0601      1728         
      4000  -36.095962      0.29722872    -35.798733      0.029597591    328.49449      983.93618      1728         
      4010  -36.102864      0.31466687    -35.788197      0.029597591    347.76698     -1496.6875      1728         
      4020  -36.004051      0.21836873    -35.785682      0.029597591    241.33915     -519.63895      1728         
      4030  -35.997404      0.21308191    -35.784322      0.029597591    235.4962      -406.43542      1728         
      4040  -36.048324      0.26718112    -35.781143      0.029597591    295.28615     -469.40078      1728         
      4050  -36.093773      0.31727145    -35.776502      0.029597591    350.64554     -1692.8477      1728         
      4060  -36.165112      0.39256552    -35.772546      0.029597591    433.85986      1470.3845      1728         
      4070  -36.297993      0.53009197    -35.767901      0.029597591    585.85285     -1952.2249      1728         
      4080  -36.312878      0.53583124    -35.777046      0.029597591    592.19584      1537.1512      1728         
      4090  -36.07434       0.27866448    -35.795676      0.029597591    307.97747      1835.446       1728         
      4100  -36.109438      0.2908083     -35.818629      0.029597591    321.3987       1697.4176      1728         
      4110  -36.369157      0.52641821    -35.842739      0.029597591    581.79265      500.97302      1728         
      4120  -36.297848      0.42400611    -35.873841      0.029597591    468.60771      374.193        1728         
      4130  -36.237649      0.33820001    -35.899449      0.029597591    373.77559     -1312.5573      1728         
      4140  -36.198149      0.26231565    -35.935833      0.029597591    289.90889      301.7188       1728         
      4150  -36.13868       0.18632634    -35.952354      0.029597591    205.92618     -1162.9702      1728         
      4160  -36.126191      0.16669391    -35.959497      0.029597591    184.2286      -691.03704      1728         
      4170  -36.107795      0.13628628    -35.971509      0.029597591    150.62236     -44.009513      1728         
      4180  -36.169327      0.19149812    -35.977829      0.029597591    211.64199     -1148.6918      1728         
      4190  -36.328517      0.33748641    -35.991031      0.029597591    372.98693     -434.58463      1728         
      4200  -36.350463      0.35473584    -35.995727      0.029597591    392.05084      171.29728      1728         
      4210  -36.363077      0.36397493    -35.999102      0.029597591    402.2618      -240.66128      1728         
      4220  -36.321208      0.31104834    -36.01016       0.029597591    343.76782      1586.2756      1728         
      4230  -36.193061      0.1717145     -36.021347      0.029597591    189.77731      2313.6374      1728         
      4240  -36.320713      0.28994526    -36.030768      0.029597591    320.44488     -1.848876       1728         
      4250  -36.43943       0.40388519    -36.035544      0.029597591    446.37026      596.80984      1728         
      4260  -36.337072      0.30587735    -36.031194      0.029597591    338.05288     -714.15098      1728         
      4270  -36.217917      0.180769      -36.037148      0.029597591    199.78426     -490.67786      1728         
      4280  -36.184757      0.14068547    -36.044072      0.029597591    155.4843      -728.53089      1728         
      4290  -36.158922      0.11290822    -36.046013      0.029597591    124.78514     -443.85353      1728         
      4300  -36.198696      0.15231539    -36.04638       0.029597591    168.33759     -1366.8879      1728         
      4310  -36.268818      0.22721215    -36.041606      0.029597591    251.11281      526.32137      1728         
      4320  -36.276419      0.23590664    -36.040512      0.029597591    260.72189     -1309.4956      1728         
      4330  -36.414775      0.38513025    -36.029644      0.029597591    425.64247      579.78418      1728         
      4340  -36.39019       0.36462444    -36.025566      0.029597591    402.97963      578.389        1728         
      4350  -36.126595      0.096422603   -36.030172      0.029597591    106.56539      1949.4788      1728         
      4360  -36.270018      0.23974361    -36.030275      0.029597591    264.96247      1342.1236      1728         
      4370  -36.449853      0.42192259    -36.02793       0.029597591    466.30503      819.72064      1728         
      4380  -36.32757       0.30210028    -36.02547       0.029597591    333.87849     -1322.3771      1728         
      4390  -36.242488      0.2214038     -36.021085      0.029597591    244.69348      734.57328      1728         
      4400  -36.206925      0.1768097     -36.030115      0.029597591    195.40848     -1642.66        1728         
      4410  -36.168495      0.1431891     -36.025306      0.029597591    158.25129     -479.1231       1728         
      4420  -36.137302      0.11170144    -36.0256        0.029597591    123.45142     -306.39788      1728         
      4430  -36.195997      0.17445161    -36.021545      0.029597591    192.80234     -870.23835      1728         
      4440  -36.296531      0.2743732     -36.022158      0.029597591    303.23478     -609.43911      1728         
      4450  -36.353261      0.34488498    -36.008376      0.029597591    381.16376      421.53868      1728         
      4460  -36.39049       0.40128733    -35.989203      0.029597591    443.49913     -703.91739      1728         
      4470  -36.250501      0.26754498    -35.982956      0.029597591    295.68829      2084.7752      1728         
      4480  -36.136774      0.15203277    -35.984741      0.029597591    168.02524      2046.9851      1728         
      4490  -36.378296      0.395643      -35.982653      0.029597591    437.26107      163.2889       1728         
      4500  -36.384149      0.41451042    -35.969639      0.029597591    458.11316      364.36226      1728         
      4510  -36.274156      0.32639103    -35.947765      0.029597591    360.72441     -313.37372      1728         
      4520  -36.22442       0.276202      -35.948218      0.029597591    305.25595     -1226.7672      1728         
      4530  -36.166173      0.22156628    -35.944607      0.029597591    244.87305     -171.58252      1728         
      4540  -36.078964      0.13830119    -35.940663      0.029597591    152.84923     -482.67118      1728         
      4550  -36.102113      0.16604704    -35.936066      0.029597591    183.51369     -752.86065      1728         
      4560  -36.105135      0.1827187     -35.922416      0.029597591    201.93905      361.66309      1728         
      4570  -36.164282      0.25862338    -35.905659      0.029597591    285.82822     -1868.349       1728         
      4580  -36.275942      0.38698371    -35.888958      0.029597591    427.69089      214.31571      1728         
      4590  -36.294182      0.44918911    -35.844993      0.029597591    496.43975     -195.03107      1728         
      4600  -36.265631      0.45688577    -35.808746      0.029597591    504.94602      431.14599      1728         
      4610  -36.094137      0.30867312    -35.785464      0.029597591    341.14274      2062.4386      1728         
      4620  -36.102993      0.32572115    -35.777272      0.029597591    359.98407      2543.7636      1728         
      4630  -36.291602      0.53325067    -35.758351      0.029597591    589.34382     -667.5727       1728         
      4640  -36.30093       0.56518333    -35.735747      0.029597591    624.63551      911.48747      1728         
      4650  -36.188623      0.46126812    -35.727355      0.029597591    509.78935     -1230.1988      1728         
      4660  -36.019136      0.29328594    -35.72585       0.029597591    324.13696     -144.23669      1728         
      4670  -35.955047      0.22169489    -35.733352      0.029597591    245.01518     -288.12702      1728         
      4680  -35.986608      0.24587156    -35.740736      0.029597591    271.73502     -790.10202      1728         
      4690  -35.982139      0.237647      -35.744492      0.029597591    262.64532     -1377.2985      1728         
      4700  -35.993788      0.24350633    -35.750282      0.029597591    269.12099      368.32898      1728         
      4710  -35.994586      0.24383419    -35.750752      0.029597591    269.48334     -1667.7393      1728         
      4720  -36.21821       0.46135798    -35.756853      0.029597591    509.88866      311.76432      1728         
      4730  -36.257761      0.47663573    -35.781125      0.029597591    526.7735      -65.838594      1728         
      4740  -36.244378      0.45013275    -35.794245      0.029597591    497.48265      184.07401      1728         
      4750  -36.149301      0.32479094    -35.82451       0.029597591    358.95601      1389.9209      1728         
      4760  -36.102892      0.25312764    -35.849765      0.029597591    279.75438      2092.6122      1728         
      4770  -36.226272      0.34712536    -35.879147      0.029597591    383.63981      204.26514      1728         
      4780  -36.280075      0.36589469    -35.91418       0.029597591    404.3835       810.26954      1728         
      4790  -36.271579      0.33250055    -35.939078      0.029597591    367.4766      -441.43105      1728         
      4800  -36.259477      0.28369478    -35.975782      0.029597591    313.53691     -387.32407      1728         
      4810  -36.126391      0.13841196    -35.987979      0.029597591    152.97165     -611.0454       1728         
      4820  -36.121695      0.12393496    -35.99776       0.029597591    136.9718      -820.19857      1728         
      4830  -36.138843      0.13290275    -36.00594       0.029597591    146.88291     -632.71515      1728         
      4840  -36.185008      0.17295578    -36.012052      0.029597591    191.14916     -173.98606      1728         
      4850  -36.229984      0.21521268    -36.014771      0.029597591    237.85111     -1060.3836      1728         
      4860  -36.333668      0.31389168    -36.019777      0.029597591    346.91025      322.54069      1728         
      4870  -36.404935      0.3907309     -36.014205      0.029597591    431.83225     -425.76805      1728         
      4880  -36.381783      0.3601955     -36.021588      0.029597591    398.08481      497.36648      1728         
      4890  -36.196215      0.16536904    -36.030846      0.029597591    182.76437      2102.5963      1728         
      4900  -36.28362       0.24392754    -36.039692      0.029597591    269.58651      1157.1687      1728         
      4910  -36.408219      0.37011099    -36.038108      0.029597591    409.04331      331.71445      1728         
      4920  -36.384762      0.34128948    -36.043473      0.029597591    377.19004      13.315964      1728         
      4930  -36.285493      0.24227823    -36.043214      0.029597591    267.76371     -615.81336      1728         
      4940  -36.215074      0.16352501    -36.051549      0.029597591    180.72636     -902.05095      1728         
      4950  -36.192153      0.13784714    -36.054306      0.029597591    152.34741     -294.96693      1728         
      4960  -36.185651      0.13525696    -36.050394      0.029597591    149.48477     -1141.5894      1728         
      4970  -36.228561      0.17950527    -36.049056      0.029597591    198.3876      -85.105978      1728         
      4980  -36.285702      0.23462495    -36.051077      0.029597591    259.30538     -389.23989      1728         
      4990  -36.335012      0.29386314    -36.041149      0.029597591    324.77489     -595.76214      1728         
      5000  -36.349255      0.31475749    -36.034498      0.029597591    347.86713      412.90231      1728         
      5010  -36.258948      0.23501013    -36.023937      0.029597591    259.73107      1338.1164      1728         
      5020  -36.162159      0.13632636    -36.025833      0.029597591    150.66666      1089.5495      1728         
      5030  -36.351101      0.32727239    -36.023829      0.029597591    361.69849      1532.3433      1728         
      5040  -36.390428      0.37766948    -36.012759      0.029597591    417.3969      -653.80407      1728         
      5050  -36.298047      0.29724854    -36.000798      0.029597591    328.5164      -65.573677      1728         
      5060  -36.2183        0.22822456    -35.990075      0.029597591    252.23172     -509.86175      1728         
      5070  -36.254246      0.26472252    -35.989523      0.029597591    292.56893     -994.3684       1728         
      5080  -36.17786       0.19365823    -35.984202      0.029597591    214.02933     -826.17769      1728         
      5090  -36.190494      0.21244733    -35.978046      0.029597591    234.79486      50.277889      1728         
      5100  -36.254065      0.28256518    -35.9715        0.029597591    312.28848     -1010.4402      1728         
      5110  -36.348579      0.40051272    -35.948067      0.029597591    442.64303      199.7301       1728         
      5120  -36.288262      0.3604264     -35.927836      0.029597591    398.34        -174.9161       1728         
      5130  -36.208923      0.29827968    -35.910643      0.029597591    329.65601      1178.3055      1728         
      5140  -36.119229      0.21786415    -35.901365      0.029597591    240.78149      1656.3446      1728         
      5150  -36.231324      0.34199439    -35.889329      0.029597591    377.96911      1162.6521      1728         
      5160  -36.275214      0.41921668    -35.855997      0.029597591    463.31449     -333.24494      1728         
      5170  -36.187339      0.36706374    -35.820275      0.029597591    405.67552      455.41313      1728         
      5180  -36.132274      0.33377045    -35.798503      0.029597591    368.88009     -1393.8945      1728         
      5190  -36.119308      0.34255146    -35.776756      0.029597591    378.58478     -235.29391      1728         
      5200  -36.025164      0.27014599    -35.755018      0.029597591    298.5629      -292.74491      1728         
      5210  -35.921193      0.18540661    -35.735787      0.029597591    204.90971     -336.85291      1728         
      5220  -36.010645      0.29438572    -35.716259      0.029597591    325.35243     -588.405        1728         
      5230  -35.995843      0.30052316    -35.69532       0.029597591    332.13548     -575.27246      1728         
      5240  -35.972977      0.29942783    -35.673549      0.029597591    330.92493     -1192.1766      1728         
      5250  -36.097689      0.45547765    -35.642211      0.029597591    503.38978     -74.032291      1728         
      5260  -36.197459      0.58801248    -35.609446      0.029597591    649.86608     -341.58964      1728         
      5270  -36.133672      0.55255415    -35.581118      0.029597591    610.67785      493.27127      1728         
      5280  -36.214001      0.64557681    -35.568424      0.029597591    713.48565      1004.4185      1728         
      5290  -35.900659      0.32594272    -35.574716      0.029597591    360.22895      1280.1516      1728         
      5300  -36.102258      0.51314069    -35.589117      0.029597591    567.11844      1603.6261      1728         
      5310  -36.339498      0.74119865    -35.598299      0.029597591    819.16605     -2.7934313      1728         
      5320  -36.164264      0.54152632    -35.622738      0.029597591    598.48999     -424.21662      1728         
      5330  -36.046359      0.38431173    -35.662047      0.029597591    424.73785      464.42779      1728         
      5340  -36.143351      0.4500875     -35.693264      0.029597591    497.43264     -835.2258       1728         
      5350  -36.052382      0.33283575    -35.719546      0.029597591    367.84706     -1302.7974      1728         
      5360  -35.992103      0.25825359    -35.73385       0.029597591    285.41953      362.82322      1728         
      5370  -36.054693      0.30113838    -35.753555      0.029597591    332.81541     -1438.7807      1728         
      5380  -36.15346       0.38187215    -35.771587      0.029597591    422.04165     -112.64649      1728         
      5390  -36.134932      0.35082824    -35.784104      0.029597591    387.7322      -154.25653      1728         
      5400  -36.229818      0.42216825    -35.807649      0.029597591    466.57653     -565.67973      1728         
      5410  -36.298974      0.48521751    -35.813757      0.029597591    536.25801     -301.73287      1728         
      5420  -36.242796      0.40899177    -35.833805      0.029597591    452.014        1337.4893      1728         
      5430  -36.112055      0.25914886    -35.852906      0.029597591    286.40897      397.1239       1728         
      5440  -36.150772      0.28175041    -35.869021      0.029597591    311.388        2230.2248      1728         
      5450  -36.256549      0.37772002    -35.878829      0.029597591    417.45275      163.46645      1728         
      5460  -36.286907      0.39792974    -35.888977      0.029597591    439.78835     -204.05878      1728         
      5470  -36.195352      0.29678907    -35.898562      0.029597591    328.0086      -377.96085      1728         
      5480  -36.124006      0.21044503    -35.913561      0.029597591    232.58195     -571.23593      1728         
      5490  -36.167946      0.24623264    -35.921713      0.029597591    272.13408     -1500.1468      1728         
      5500  -36.107549      0.1787761     -35.928773      0.029597591    197.58173      665.11245      1728         
      5510  -36.101077      0.17393589    -35.927141      0.029597591    192.23238     -1351.4347      1728         
      5520  -36.260436      0.32571345    -35.934722      0.029597591    359.97556      122.59151      1728         
      5530  -36.301005      0.36225424    -35.938751      0.029597591    400.36011     -770.36532      1728         
      5540  -36.297539      0.35396647    -35.943572      0.029597591    391.20054      50.010542      1728         
      5550  -36.350354      0.39911686    -35.951237      0.029597591    441.10034      750.64674      1728         
      5560  -36.173958      0.21397881    -35.959979      0.029597591    236.48744      1848.1511      1728         
      5570  -36.236327      0.26541268    -35.970914      0.029597591    293.3317       598.6222       1728         
      5580  -36.420685      0.43949726    -35.981187      0.029597591    485.72839      1036.0176      1728         
      5590  -36.347437      0.34847093    -35.998966      0.029597591    385.12692     -935.95412      1728         
      5600  -36.23014       0.22601581    -36.004124      0.029597591    249.79063     -501.94614      1728         
      5610  -36.293952      0.28239272    -36.011559      0.029597591    312.09788     -176.88475      1728         
      5620  -36.179921      0.1569734     -36.022948      0.029597591    173.48558     -1012.903       1728         
      5630  -36.193195      0.16529825    -36.027897      0.029597591    182.68613     -355.88066      1728         
      5640  -36.294882      0.2575406     -36.037342      0.029597591    284.63154     -185.23134      1728         
      5650  -36.266717      0.22469881    -36.042018      0.029597591    248.3351      -838.99442      1728         
      5660  -36.299318      0.2640724     -36.035246      0.029597591    291.85043     -188.43955      1728         
      5670  -36.339445      0.29656893    -36.042876      0.029597591    327.7653       659.74483      1728         
      5680  -36.214216      0.16741977    -36.046796      0.029597591    185.03081      444.46412      1728         
      5690  -36.218887      0.16683242    -36.052054      0.029597591    184.38168      2040.9829      1728         
      5700  -36.335293      0.28023362    -36.055059      0.029597591    309.71166     -15.023549      1728         
      5710  -36.317166      0.26624206    -36.050924      0.029597591    294.24832      41.121392      1728         
      5720  -36.300769      0.25012835    -36.050641      0.029597591    276.43959     -444.31888      1728         
      5730  -36.2792        0.23202318    -36.047176      0.029597591    256.42992     -250.91225      1728         
      5740  -36.232261      0.18031855    -36.051943      0.029597591    199.28643     -920.40979      1728         
      5750  -36.216998      0.16490442    -36.052094      0.029597591    182.25087      245.33548      1728         
      5760  -36.287711      0.24127417    -36.046437      0.029597591    266.65403     -1672.4458      1728         
      5770  -36.274431      0.22986727    -36.044563      0.029597591    254.04722      445.29806      1728         
      5780  -36.340102      0.30998774    -36.030114      0.029597591    342.59565     -939.62488      1728         
      5790  -36.392078      0.37056026    -36.021518      0.029597591    409.53985      295.25186      1728         
      5800  -36.269657      0.26163952    -36.008018      0.029597591    289.16163      1171.3739      1728         
      5810  -36.154263      0.15318808    -36.001075      0.029597591    169.30208      1876.0636      1728         
      5820  -36.291901      0.29749138    -35.994409      0.029597591    328.78479      53.571047      1728         
      5830  -36.329345      0.36073549    -35.968609      0.029597591    398.6816       1132.418       1728         
      5840  -36.28104       0.33281003    -35.94823       0.029597591    367.81864     -1219.8134      1728         
      5850  -36.259861      0.33580247    -35.924058      0.029597591    371.12585     -391.27969      1728         
      5860  -36.118407      0.21627719    -35.90213       0.029597591    239.02759     -138.64173      1728         
      5870  -36.061197      0.17305239    -35.888144      0.029597591    191.25594     -379.51196      1728         
      5880  -36.110025      0.2332725     -35.876752      0.029597591    257.81066     -537.096        1728         
      5890  -36.05344       0.19342361    -35.860016      0.029597591    213.77003      24.309174      1728         
      5900  -36.027415      0.18247142    -35.844944      0.029597591    201.66577     -1361.5313      1728         
      5910  -36.104486      0.28615804    -35.818327      0.029597591    316.25927      188.40896      1728         
      5920  -36.112012      0.31528744    -35.796725      0.029597591    348.45282     -555.56318      1728         
      5930  -36.189458      0.41768834    -35.77177       0.029597591    461.62538     -727.63787      1728         
      5940  -36.268258      0.52645192    -35.741806      0.029597591    581.8299       284.02474      1728         
      5950  -36.260836      0.54103144    -35.719804      0.029597591    597.94305     -176.10998      1728         
      5960  -36.098996      0.39525331    -35.703743      0.029597591    436.83038      1395.5419      1728         
      5970  -36.134567      0.42152955    -35.713038      0.029597591    465.87064      2160.32        1728         
      5980  -36.170808      0.45372479    -35.717083      0.029597591    501.45253      485.08054      1728         
      5990  -36.293459      0.57102441    -35.722434      0.029597591    631.09101     -92.917241      1728         
      6000  -36.24333       0.50982701    -35.733503      0.029597591    563.4562       661.32528      1728         
      6010  -36.054299      0.30525116    -35.749048      0.029597591    337.36081     -2134.115       1728         
      6020  -36.024497      0.26070287    -35.763794      0.029597591    288.12645      363.86647      1728         
      6030  -36.093334      0.31608687    -35.777247      0.029597591    349.33635     -840.28749      1728         
      6040  -35.994677      0.20352077    -35.791156      0.029597591    224.92931     -441.77971      1728         
      6050  -36.011535      0.21030038    -35.801234      0.029597591    232.42208      298.22279      1728         
      6060  -36.075396      0.26850298    -35.806893      0.029597591    296.74706     -699.46029      1728         
      6070  -36.118985      0.30537783    -35.813608      0.029597591    337.50081     -1614.8825      1728         
      6080  -36.197659      0.36610057    -35.831559      0.029597591    404.61104      1065.8734      1728         
      6090  -36.307946      0.46959854    -35.838348      0.029597591    518.99606     -1543.6715      1728         
      6100  -36.284304      0.41846849    -35.865835      0.029597591    462.48758      1231.8025      1728         
      6110  -36.145218      0.26966425    -35.875554      0.029597591    298.03049      1777.6986      1728         
      6120  -36.170541      0.26795161    -35.902589      0.029597591    296.1377       894.96164      1728         
      6130  -36.296907      0.37473339    -35.922173      0.029597591    414.15195      648.44244      1728         
      6140  -36.392498      0.44709826    -35.9454        0.029597591    494.12895      275.06419      1728         
      6150  -36.247919      0.28920106    -35.958718      0.029597591    319.6224      -1575.9951      1728         
      6160  -36.20967       0.23558957    -35.97408       0.029597591    260.37147      620.56796      1728         
      6170  -36.150877      0.16563595    -35.985241      0.029597591    183.05936     -1121.0231      1728         
      6180  -36.223563      0.23102045    -35.992543      0.029597591    255.32171     -1234.0248      1728         
      6190  -36.192048      0.19182999    -36.000218      0.029597591    212.00877      115.88759      1728         
      6200  -36.266505      0.25787778    -36.008627      0.029597591    285.00419     -665.68549      1728         
      6210  -36.33452       0.33604374    -35.998476      0.029597591    371.39251     -803.61436      1728         
      6220  -36.349312      0.33970125    -36.009611      0.029597591    375.43475      1455.6918      1728         
      6230  -36.17503       0.16535699    -36.009673      0.029597591    182.75105      325.80527      1728         
      6240  -36.256866      0.23703985    -36.019826      0.029597591    261.9743       1387.1541      1728         
      6250  -36.310628      0.28791111    -36.022717      0.029597591    318.19675      1151.2071      1728         
      6260  -36.370773      0.35653058    -36.014242      0.029597591    394.03437     -800.23537      1728         
      6270  -36.296132      0.27721508    -36.018917      0.029597591    306.3756      -30.594552      1728         
      6280  -36.307705      0.29270932    -36.014995      0.029597591    323.49969     -112.67169      1728         
      6290  -36.204308      0.18356404    -36.020744      0.029597591    202.87332     -1199.1555      1728         
      6300  -36.203637      0.18164579    -36.021991      0.029597591    200.75329     -191.11796      1728         
      6310  -36.219805      0.20263521    -36.01717       0.029597591    223.9506      -769.10275      1728         
      6320  -36.300971      0.28302169    -36.01795       0.029597591    312.79301     -896.19443      1728         
      6330  -36.286365      0.27973045    -36.006635      0.029597591    309.15556      393.98957      1728         
      6340  -36.326008      0.31841056    -36.007598      0.029597591    351.90447     -356.44205      1728         
      6350  -36.286661      0.28791292    -35.998748      0.029597591    318.19875      1036.3581      1728         
      6360  -36.165036      0.17118233    -35.993853      0.029597591    189.18916      1493.405       1728         
      6370  -36.181809      0.18396919    -35.99784       0.029597591    203.32108      483.66246      1728         
      6380  -36.354207      0.36796717    -35.98624       0.029597591    406.67399      465.09303      1728         
      6390  -36.336692      0.35162706    -35.985065      0.029597591    388.61504      29.302899      1728         
      6400  -36.175848      0.20547204    -35.970376      0.029597591    227.08584     -1056.3158      1728         
      6410  -36.212704      0.24545502    -35.967249      0.029597591    271.27467      385.10085      1728         
      6420  -36.171683      0.20785809    -35.963825      0.029597591    229.72288     -1367.2482      1728         
[...]
    148410  -34.832409      0.19715916    -34.63525       0.029597591    217.89852      1324.5577      1728         
    148420  -34.925477      0.28715316    -34.638324      0.029597591    317.35908     -332.43531      1728         
    148430  -34.912133      0.27502856    -34.637105      0.029597591    303.95908     -402.42689      1728         
    148440  -34.864995      0.23292885    -34.632066      0.029597591    257.43086      337.02891      1728         
    148450  -34.842445      0.21375457    -34.628691      0.029597591    236.23962      134.1282       1728         
    148460  -34.871907      0.25603475    -34.615872      0.029597591    282.96729      863.00138      1728         
    148470  -34.951863      0.3413715     -34.610492      0.029597591    377.2807       438.34713      1728         
    148480  -34.950724      0.35171559    -34.599009      0.029597591    388.71289     -490.1023       1728         
    148490  -34.800403      0.20438802    -34.596015      0.029597591    225.88779     -1020.9768      1728         
    148500  -34.900398      0.32358139    -34.576817      0.029597591    357.61923      688.27641      1728         
    148510  -34.910734      0.36214268    -34.548591      0.029597591    400.23681      1374.0982      1728         
    148520  -34.808079      0.26215651    -34.545922      0.029597591    289.733       -1185.4065      1728         
    148530  -34.815019      0.29560236    -34.519417      0.029597591    326.69706      901.8209       1728         
    148540  -34.918557      0.41478276    -34.503774      0.029597591    458.41415     -313.91525      1728         
    148550  -34.874813      0.39929373    -34.475519      0.029597591    441.29582      1109.6564      1728         
    148560  -34.765755      0.31062804    -34.455127      0.029597591    343.3033      -735.45687      1728         
    148570  -34.94567       0.50922183    -34.436448      0.029597591    562.78736     -280.35184      1728         
    148580  -34.833399      0.41279373    -34.420605      0.029597591    456.2159       196.60042      1728         
    148590  -34.830993      0.41949753    -34.411495      0.029597591    463.62487      123.49758      1728         
    148600  -34.783999      0.37810982    -34.40589       0.029597591    417.88355      910.07145      1728         
    148610  -34.814866      0.4158941     -34.398972      0.029597591    459.6424       681.74148      1728         
    148620  -34.895482      0.49417147    -34.401311      0.029597591    546.15383      662.71449      1728         
    148630  -34.839656      0.4290571     -34.410598      0.029597591    474.19002      1015.7876      1728         
    148640  -34.769123      0.34641619    -34.422706      0.029597591    382.85604      150.27554      1728         
    148650  -34.964963      0.52093602    -34.444026      0.029597591    575.73378     -160.07632      1728         
    148660  -34.82951       0.3633459     -34.466164      0.029597591    401.5666       80.073507      1728         
    148670  -34.772098      0.28700186    -34.485096      0.029597591    317.19186      772.06316      1728         
    148680  -34.869197      0.35907494    -34.510122      0.029597591    396.84638      1122.3938      1728         
    148690  -34.946926      0.40415699    -34.542769      0.029597591    446.67064      86.692725      1728         
    148700  -34.877586      0.30252874    -34.575057      0.029597591    334.35203     -271.96723      1728         
    148710  -34.881731      0.28926585    -34.592465      0.029597591    319.694        389.64866      1728         
    148720  -34.937015      0.31938616    -34.617629      0.029597591    352.98269      42.620823      1728         
    148730  -34.903408      0.26298637    -34.640422      0.029597591    290.65015      365.63364      1728         
    148740  -34.900423      0.24137585    -34.659047      0.029597591    266.76641     -954.65186      1728         
    148750  -34.860354      0.189988      -34.670366      0.029597591    209.97302     -893.73577      1728         
    148760  -34.922135      0.24700159    -34.675133      0.029597591    272.98392     -735.8953       1728         
    148770  -34.897409      0.21354659    -34.683862      0.029597591    236.00976     -650.00741      1728         
    148780  -34.849978      0.16116227    -34.688815      0.029597591    178.11509     -693.80365      1728         
    148790  -34.905273      0.21296248    -34.692311      0.029597591    235.3642      -203.59235      1728         
    148800  -34.928059      0.23317407    -34.694885      0.029597591    257.70187     -1149.6135      1728         
    148810  -34.833352      0.14280374    -34.690548      0.029597591    157.8254      -705.40041      1728         
    148820  -34.901861      0.21130666    -34.690555      0.029597591    233.53421     -848.58389      1728         
    148830  -34.964699      0.27321194    -34.691487      0.029597591    301.95136     -9.475232       1728         
    148840  -34.924361      0.23359836    -34.690763      0.029597591    258.1708       432.56912      1728         
    148850  -34.867475      0.17763553    -34.689839      0.029597591    196.32118      462.78023      1728         
    148860  -34.97566       0.29466461    -34.680995      0.029597591    325.66066     -362.90887      1728         
    148870  -34.892123      0.21478063    -34.677343      0.029597591    237.37361      245.28414      1728         
    148880  -34.879603      0.20360489    -34.675998      0.029597591    225.02228      395.35064      1728         
    148890  -34.900391      0.229826      -34.670565      0.029597591    254.00161      1062.328       1728         
    148900  -34.922082      0.25695656    -34.665125      0.029597591    283.98607      877.44647      1728         
    148910  -34.874466      0.22110747    -34.653358      0.029597591    244.36598      666.49455      1728         
    148920  -34.870751      0.22395776    -34.646793      0.029597591    247.51609      1166.2936      1728         
    148930  -34.909416      0.27216731    -34.637249      0.029597591    300.79685      634.74933      1728         
    148940  -34.909003      0.28251586    -34.626487      0.029597591    312.23397      907.47654      1728         
    148950  -34.872697      0.25625144    -34.616445      0.029597591    283.20677      40.488693      1728         
    148960  -34.824592      0.22223126    -34.602361      0.029597591    245.60798     -19.562327      1728         
    148970  -34.955096      0.36816377    -34.586932      0.029597591    406.89127      481.23248      1728         
    148980  -34.895016      0.3239409     -34.571076      0.029597591    358.01656      514.21161      1728         
    148990  -34.837644      0.27741258    -34.560231      0.029597591    306.59387     -845.52145      1728         
    149000  -34.927375      0.38114544    -34.54623       0.029597591    421.23849     -607.44894      1728         
    149010  -34.857326      0.33333953    -34.523987      0.029597591    368.40383     -852.04343      1728         
    149020  -34.743957      0.23310165    -34.510855      0.029597591    257.62183      569.15649      1728         
    149030  -34.828487      0.33077877    -34.497708      0.029597591    365.57371      463.02724      1728         
    149040  -34.854796      0.37612816    -34.478668      0.029597591    415.69344      800.44691      1728         
    149050  -34.894064      0.43523569    -34.458829      0.029597591    481.01855      547.9281       1728         
    149060  -34.788782      0.35269265    -34.436089      0.029597591    389.79273      776.18957      1728         
    149070  -34.90848       0.48530797    -34.423172      0.029597591    536.35798     -751.82348      1728         
    149080  -34.870555      0.46624077    -34.404314      0.029597591    515.28508      1269.4584      1728         
    149090  -34.842492      0.44784368    -34.394648      0.029597591    494.95278     -105.86094      1728         
    149100  -34.782103      0.39264036    -34.389463      0.029597591    433.94257      264.24763      1728         
    149110  -34.8459        0.46247846    -34.383421      0.029597591    511.12701      707.20911      1728         
    149120  -34.941667      0.55332884    -34.388339      0.029597591    611.53403      505.7619       1728         
    149130  -34.802859      0.39976994    -34.403089      0.029597591    441.82212      696.24826      1728         
    149140  -34.821261      0.39936513    -34.421896      0.029597591    441.37473      48.977141      1728         
    149150  -34.948024      0.49439047    -34.453634      0.029597591    546.39587     -692.34049      1728         
    149160  -34.855592      0.3628372     -34.492754      0.029597591    401.00439      543.62202      1728         
    149170  -34.796989      0.27069405    -34.526295      0.029597591    299.16862      212.17158      1728         
    149180  -34.876202      0.31536422    -34.560838      0.029597591    348.53768      609.72444      1728         
    149190  -34.890779      0.29707261    -34.593706      0.029597591    328.32196      843.75446      1728         
    149200  -34.934845      0.30696738    -34.627878      0.029597591    339.25757      214.23291      1728         
    149210  -34.834421      0.18889394    -34.645527      0.029597591    208.76387      756.74465      1728         
    149220  -34.939373      0.27551329    -34.663859      0.029597591    304.4948       474.28216      1728         
    149230  -34.921988      0.24109812    -34.68089       0.029597591    266.45946      389.10638      1728         
    149240  -34.895101      0.2014318     -34.69367       0.029597591    222.6206       433.3703       1728         
    149250  -34.836932      0.13562247    -34.70131       0.029597591    149.88873     -187.51146      1728         
    149260  -34.95702       0.25465605    -34.702363      0.029597591    281.44356     -376.20432      1728         
    149270  -34.941007      0.23163485    -34.709372      0.029597591    256.00074      96.004669      1728         
    149280  -34.848041      0.13548372    -34.712558      0.029597591    149.73539     -27.986038      1728         
    149290  -34.947615      0.23342851    -34.714186      0.029597591    257.98308      921.40658      1728         
    149300  -34.963641      0.24749572    -34.716145      0.029597591    273.53003      650.66735      1728         
    149310  -34.860119      0.14739295    -34.712726      0.029597591    162.89735      236.7345       1728         
    149320  -34.909699      0.19690157    -34.712798      0.029597591    217.61384      199.24932      1728         
    149330  -34.953984      0.24433599    -34.709648      0.029597591    270.03793      745.97063      1728         
    149340  -34.964025      0.2504707     -34.713554      0.029597591    276.81795      1220.6035      1728         
    149350  -34.904474      0.19654367    -34.707931      0.029597591    217.21829      280.70328      1728         
    149360  -34.93586       0.23502516    -34.700835      0.029597591    259.74768      366.32313      1728         
    149370  -34.927914      0.23452087    -34.693393      0.029597591    259.19034      127.70825      1728         
    149380  -34.893516      0.20555712    -34.687959      0.029597591    227.17987     -133.56814      1728         
    149390  -34.872362      0.18969748    -34.682665      0.029597591    209.65194      187.776        1728         
    149400  -34.879585      0.20390196    -34.675683      0.029597591    225.3506       791.65085      1728         
    149410  -34.975361      0.31704589    -34.658315      0.029597591    350.39624     -132.72415      1728         
    149420  -34.810941      0.16304246    -34.647899      0.029597591    180.19305      607.27512      1728         
    149430  -34.881319      0.24342736    -34.637892      0.029597591    269.03372      325.5315       1728         
    149440  -34.924988      0.30574018    -34.619248      0.029597591    337.90128     -981.66987      1728         
    149450  -34.868627      0.26765239    -34.600974      0.029597591    295.807       -728.72417      1728         
    149460  -34.809856      0.22397477    -34.585881      0.029597591    247.53489      276.31196      1728         
    149470  -34.897716      0.32778324    -34.569932      0.029597591    362.26307     -69.957957      1728         
    149480  -34.919104      0.37099472    -34.548109      0.029597591    410.02         440.33224      1728         
    149490  -34.891509      0.3609857     -34.530524      0.029597591    398.95813      505.58659      1728         
    149500  -34.816749      0.29995941    -34.51679       0.029597591    331.51243      622.94429      1728         
    149510  -34.911185      0.4164775     -34.494707      0.029597591    460.28716     -98.288871      1728         
    149520  -34.847164      0.36142219    -34.485742      0.029597591    399.44053      337.60095      1728         
    149530  -34.825728      0.35316563    -34.472563      0.029597591    390.31546     -407.82564      1728         
    149540  -34.752113      0.28318463    -34.468928      0.029597591    312.9731       84.317687      1728         
    149550  -34.82806       0.36223078    -34.46583       0.029597591    400.33418      781.35343      1728         
    149560  -34.962145      0.5065464     -34.455598      0.029597591    559.8305       1060.8612      1728         
    149570  -34.747619      0.29102101    -34.456598      0.029597591    321.63379      741.87759      1728         
    149580  -34.778809      0.32140039    -34.457409      0.029597591    355.2088      -327.47556      1728         
    149590  -34.970974      0.51280833    -34.458165      0.029597591    566.75113     -1089.1703      1728         
    149600  -34.804731      0.32408139    -34.480649      0.029597591    358.17182      1344.336       1728         
    149610  -34.748779      0.26714363    -34.481636      0.029597591    295.24473      1890.3287      1728         
    149620  -34.798501      0.30705376    -34.491448      0.029597591    339.35304      1382.2099      1728         
    149630  -34.772545      0.26539774    -34.507147      0.029597591    293.31518      455.04059      1728         
    149640  -34.981343      0.45082935    -34.530514      0.029597591    498.25252     -579.99688      1728         
    149650  -34.824887      0.26397547    -34.560912      0.029597591    291.7433      -1030.6044      1728         
    149660  -34.810947      0.23514988    -34.575797      0.029597591    259.88552     -643.05696      1728         
    149670  -34.957494      0.34992832    -34.607565      0.029597591    386.73762     -354.1084       1728         
    149680  -34.891009      0.24711511    -34.643894      0.029597591    273.10938     -623.58593      1728         
    149690  -34.764268      0.10051853    -34.663749      0.029597591    111.09217      911.04997      1728         
    149700  -34.895817      0.21709542    -34.678722      0.029597591    239.93189      856.82658      1728         
    149710  -34.95643       0.26115942    -34.69527       0.029597591    288.63103      769.34639      1728         
    149720  -34.883504      0.1713326     -34.712172      0.029597591    189.35524      783.44127      1728         
    149730  -34.870238      0.14796959    -34.722268      0.029597591    163.53465     -924.62789      1728         
    149740  -34.973793      0.24297875    -34.730814      0.029597591    268.53791     -1315.1935      1728         
    149750  -34.88471       0.1502732     -34.734437      0.029597591    166.08058     -929.61687      1728         
    149760  -34.874787      0.14302368    -34.731763      0.029597591    158.06848     -728.48134      1728         
    149770  -34.873887      0.13874926    -34.735138      0.029597591    153.34443      1387.5588      1728         
    149780  -34.925763      0.19262861    -34.733134      0.029597591    212.89139      1314.8146      1728         
    149790  -34.948984      0.21901592    -34.729968      0.029597591    242.05441      590.53787      1728         
    149800  -34.840553      0.11157716    -34.728976      0.029597591    123.31407      369.28603      1728         
    149810  -34.935932      0.21484382    -34.721088      0.029597591    237.44344     -665.58538      1728         
    149820  -34.940991      0.22523624    -34.715755      0.029597591    248.92906     -588.19821      1728         
    149830  -34.835483      0.12428307    -34.7112        0.029597591    137.35653     -658.70485      1728         
    149840  -34.828493      0.1216329     -34.70686       0.029597591    134.42758     -1046.9882      1728         
    149850  -34.965382      0.26642207    -34.698959      0.029597591    294.44727     -195.98313      1728         
    149860  -34.902728      0.21812487    -34.684603      0.029597591    241.06963      645.23872      1728         
    149870  -34.815103      0.13770627    -34.677397      0.029597591    152.19172      776.52501      1728         
    149880  -34.932015      0.26463788    -34.667377      0.029597591    292.47539      1395.4568      1728         
    149890  -34.902956      0.25040942    -34.652547      0.029597591    276.75023      660.40971      1728         
    149900  -34.821427      0.17670251    -34.644724      0.029597591    195.29002     -72.533444      1728         
    149910  -34.829543      0.19612634    -34.633417      0.029597591    216.75706      1022.9848      1728         
    149920  -34.802177      0.18013914    -34.622038      0.029597591    199.08815      477.06757      1728         
    149930  -34.919026      0.31184895    -34.607177      0.029597591    344.65264      235.66828      1728         
    149940  -34.802917      0.21249717    -34.590419      0.029597591    234.84995     -846.89398      1728         
    149950  -34.835286      0.25936646    -34.575919      0.029597591    286.64946     -1950.9635      1728         
    149960  -34.983163      0.42537112    -34.557792      0.029597591    470.11631      153.88093      1728         
    149970  -34.882407      0.33562232    -34.546785      0.029597591    370.92675      285.05427      1728         
    149980  -34.788922      0.25142931    -34.537493      0.029597591    277.87739      347.78968      1728         
    149990  -34.806203      0.27328777    -34.532915      0.029597591    302.03517      1265.8112      1728         
    150000  -34.859212      0.33787589    -34.521336      0.029597591    373.41738     -590.09765      1728         
Loop time of 690.776 on 1 procs for 150000 steps with 8 atoms

Performance: 9.381 ns/day, 2.558 hours/ns, 217.147 timesteps/s, 1.737 katom-step/s
110.8% CPU use with 1 MPI tasks x 1 OpenMP threads

MPI task timing breakdown:
Section |  min time  |  avg time  |  max time  |%varavg| %total
---------------------------------------------------------------
Pair    | 676.36     | 676.36     | 676.36     |   0.0 | 97.91
Neigh   | 0.017137   | 0.017137   | 0.017137   |   0.0 |  0.00
Comm    | 0.35863    | 0.35863    | 0.35863    |   0.0 |  0.05
Output  | 1.0639     | 1.0639     | 1.0639     |   0.0 |  0.15
Modify  | 12.741     | 12.741     | 12.741     |   0.0 |  1.84
Other   |            | 0.2403     |            |       |  0.03

Nlocal:              8 ave           8 max           8 min
Histogram: 1 0 0 0 0 0 0 0 0 0
Nghost:             90 ave          90 max          90 min
Histogram: 1 0 0 0 0 0 0 0 0 0
Neighs:              0 ave           0 max           0 min
Histogram: 1 0 0 0 0 0 0 0 0 0
FullNghs:           82 ave          82 max          82 min
Histogram: 1 0 0 0 0 0 0 0 0 0

Total # of neighbors = 82
Ave neighs/atom = 10.25
Neighbor list builds = 1100
Dangerous builds = 0
#
Total wall time: 0:11:32
