ITEM: TIMESTEP
0
ITEM: NUMBER OF ATOMS
8
ITEM: BOX BOUNDS xy xz yz pp pp pp
0.0000000000000000e+00 1.2000000000000000e+01 0.0000000000000000e+00
0.0000000000000000e+00 1.2000000000000000e+01 0.0000000000000000e+00
0.0000000000000000e+00 1.2000000000000000e+01 0.0000000000000000e+00
ITEM: ATOMS id type x y z
1 1 5.74046 6.33007 5.41224
2 2 7.13765 6.17173 7.19603
3 2 6.99131 4.6591 6.48592
4 2 5.76199 5.3298 7.42483
5 2 5.30281 7.3409 5.86648
6 2 4.86235 5.64183 4.93919
7 2 6.6291 6.51884 4.57517
8 3 6.45143 5.56858 6.69633
ITEM: TIMESTEP
100
ITEM: NUMBER OF ATOMS
8
ITEM: BOX BOUNDS xy xz yz pp pp pp
0.0000000000000000e+00 1.2000000000000000e+01 0.0000000000000000e+00
0.0000000000000000e+00 1.2000000000000000e+01 0.0000000000000000e+00
0.0000000000000000e+00 1.2000000000000000e+01 0.0000000000000000e+00
ITEM: ATOMS id type x y z
1 1 5.53452 6.24841 5.49841
2 2 7.4916 6.21485 6.63502
3 2 6.95015 4.61856 6.46555
4 2 6.2848 5.61806 7.60644
5 2 5.23254 7.35844 5.99983
6 2 4.60728 5.43992 5.47357
7 2 6.10677 6.23867 4.46235
8 3 6.61116 5.64398 6.61877
ITEM: TIMESTEP
200
ITEM: NUMBER OF ATOMS
8
ITEM: BOX BOUNDS xy xz yz pp pp pp
0.0000000000000000e+00 1.2000000000000000e+01 0.0000000000000000e+00
0.0000000000000000e+00 1.2000000000000000e+01 0.0000000000000000e+00
0.0000000000000000e+00 1.2000000000000000e+01 0.0000000000000000e+00
ITEM: ATOMS id type x y z
1 1 5.30839 6.09759 5.72668
2 2 7.56726 6.28571 6.05713
3 2 7.1087 4.72997 6.34418
4 2 6.82002 5.95474 7.45159
5 2 5.27632 7.33147 5.81393
6 2 4.51511 5.47445 6.44201
7 2 5.62817 5.77273 4.52536
8 3 6.76829 5.75601 6.44329
ITEM: TIMESTEP
300
ITEM: NUMBER OF ATOMS
8
ITEM: BOX BOUNDS xy xz yz pp pp pp
0.0000000000000000e+00 1.2000000000000000e+01 0.0000000000000000e+00
0.0000000000000000e+00 1.2000000000000000e+01 0.0000000000000000e+00
0.0000000000000000e+00 1.2000000000000000e+01 0.0000000000000000e+00
ITEM: ATOMS id type x y z
1 1 5.25822 5.94494 6.05894
2 2 7.24804 6.18723 5.34063
3 2 7.16759 4.89601 6.37379
4 2 7.29863 6.44477 6.8943
5 2 4.93846 7.02784 5.76364
6 2 4.82188 5.60542 7.12498
7 2 4.95132 5.17044 5.18472
8 3 6.84197 5.88929 6.18356
ITEM: TIMESTEP
400
ITEM: NUMBER OF ATOMS
8
ITEM: BOX BOUNDS xy xz yz pp pp pp
0.0000000000000000e+00 1.2000000000000000e+01 0.0000000000000000e+00
0.0000000000000000e+00 1.2000000000000000e+01 0.0000000000000000e+00
0.0000000000000000e+00 1.2000000000000000e+01 0.0000000000000000e+00
ITEM: ATOMS id type x y z
1 1 5.3129 5.8396 6.36269
2 2 6.88962 5.85256 4.96124
3 2 7.37313 5.19351 6.38416
4 2 7.25673 6.85528 6.21518
5 2 4.58727 6.82287 5.89583
6 2 5.16506 5.73242 7.60682
7 2 4.91478 4.77473 5.91354
8 3 6.81688 5.97772 5.92818
ITEM: TIMESTEP
500
ITEM: NUMBER OF ATOMS
8
ITEM: BOX BOUNDS xy xz yz pp pp pp
0.0000000000000000e+00 1.2000000000000000e+01 0.0000000000000000e+00
0.0000000000000000e+00 1.2000000000000000e+01 0.0000000000000000e+00
0.0000000000000000e+00 1.2000000000000000e+01 0.0000000000000000e+00
ITEM: ATOMS id type x y z
1 1 5.39565 5.76183 6.62326
2 2 6.52772 5.75067 4.79413
3 2 7.47658 5.37506 6.12539
4 2 7.04839 7.02916 5.71896
5 2 4.52687 6.34678 6.08076
6 2 5.6482 6.26125 7.68543
7 2 5.34729 4.53696 6.58905
8 3 6.7253 6.03282 5.72597
ITEM: TIMESTEP
600
ITEM: NUMBER OF ATOMS
8
ITEM: BOX BOUNDS xy xz yz pp pp pp
0.0000000000000000e+00 1.2000000000000000e+01 0.0000000000000000e+00
0.0000000000000000e+00 1.2000000000000000e+01 0.0000000000000000e+00
0.0000000000000000e+00 1.2000000000000000e+01 0.0000000000000000e+00
ITEM: ATOMS id type x y z
1 1 5.56084 5.7371 6.85599
2 2 6.37419 5.40199 4.80244
3 2 7.59658 5.91224 5.92639
4 2 6.51904 7.05598 5.19135
5 2 4.42601 5.98156 6.43559
6 2 6.0123 6.42523 7.77332
7 2 5.76579 4.50823 6.98878
8 3 6.58938 6.05294 5.53756
ITEM: TIMESTEP
700
ITEM: NUMBER OF ATOMS
8
ITEM: BOX BOUNDS xy xz yz pp pp pp
0.0000000000000000e+00 1.2000000000000000e+01 0.0000000000000000e+00
0.0000000000000000e+00 1.2000000000000000e+01 0.0000000000000000e+00
0.0000000000000000e+00 1.2000000000000000e+01 0.0000000000000000e+00
ITEM: ATOMS id type x y z
1 1 5.79989 5.73552 7.00385
2 2 6.22685 5.25433 4.84441
3 2 7.46962 6.12688 5.53979
4 2 6.00388 6.9411 5.00195
5 2 4.55279 5.50538 6.91268
6 2 6.10388 6.6999 7.71252
7 2 6.34762 4.7392 7.36051
8 3 6.4042 6.05548 5.40536
ITEM: TIMESTEP
800
ITEM: NUMBER OF ATOMS
8
ITEM: BOX BOUNDS xy xz yz pp pp pp
0.0000000000000000e+00 1.2000000000000000e+01 0.0000000000000000e+00
0.0000000000000000e+00 1.2000000000000000e+01 0.0000000000000000e+00
0.0000000000000000e+00 1.2000000000000000e+01 0.0000000000000000e+00
ITEM: ATOMS id type x y z
1 1 6.06053 5.76846 7.07046
2 2 6.07861 5.15366 4.9358
3 2 7.14037 6.42774 5.18113
4 2 5.45229 6.63676 4.9789
5 2 5.02959 5.2607 7.29948
6 2 6.13131 6.86486 7.54537
7 2 7.06092 5.09 7.2801
8 3 6.18968 6.01814 5.36476
ITEM: TIMESTEP
900
ITEM: NUMBER OF ATOMS
8
ITEM: BOX BOUNDS xy xz yz pp pp pp
0.0000000000000000e+00 1.2000000000000000e+01 0.0000000000000000e+00
0.0000000000000000e+00 1.2000000000000000e+01 0.0000000000000000e+00
0.0000000000000000e+00 1.2000000000000000e+01 0.0000000000000000e+00
ITEM: ATOMS id type x y z
1 1 6.36083 5.86667 6.98795
2 2 6.22011 5.14413 4.96868
3 2 6.47092 6.73465 5.00385
4 2 4.95251 6.12948 5.25859
5 2 5.48505 5.04593 7.4038
6 2 6.22439 7.05648 7.3703
7 2 7.59891 5.4816 6.87379
8 3 5.95382 5.93106 5.45283
ITEM: TIMESTEP
1000
ITEM: NUMBER OF ATOMS
8
ITEM: BOX BOUNDS xy xz yz pp pp pp
0.0000000000000000e+00 1.2000000000000000e+01 0.0000000000000000e+00
0.0000000000000000e+00 1.2000000000000000e+01 0.0000000000000000e+00
0.0000000000000000e+00 1.2000000000000000e+01 0.0000000000000000e+00
ITEM: ATOMS id type x y z
1 1 6.6472 5.98043 6.8706
2 2 5.90162 5.03879 5.00102
3 2 5.84516 6.65327 4.8393
4 2 4.69633 5.78987 5.74081
5 2 6.72582 4.91651 7.4458
6 2 6.13862 6.85701 7.50888
7 2 7.6942 6.26834 6.51879
8 3 5.72934 5.84819 5.53081
ITEM: TIMESTEP
1100
ITEM: NUMBER OF ATOMS
8
ITEM: BOX BOUNDS xy xz yz pp pp pp
0.0000000000000000e+00 1.2000000000000000e+01 0.0000000000000000e+00
0.0000000000000000e+00 1.2000000000000000e+01 0.0000000000000000e+00
0.0000000000000000e+00 1.2000000000000000e+01 0.0000000000000000e+00
ITEM: ATOMS id type x y z
1 1 6.86519 6.12862 6.69951
2 2 5.79149 5.17714 4.85922
3 2 5.06965 6.62444 5.30079
4 2 4.77307 5.17875 6.13328
5 2 7.1777 5.06196 7.20337
6 2 6.416 6.86937 7.5906
7 2 7.81503 6.62899 5.96726
8 3 5.55823 5.73267 5.6628
ITEM: TIMESTEP
1200
ITEM: NUMBER OF ATOMS
8
ITEM: BOX BOUNDS xy xz yz pp pp pp
0.0000000000000000e+00 1.2000000000000000e+01 0.0000000000000000e+00
0.0000000000000000e+00 1.2000000000000000e+01 0.0000000000000000e+00
0.0000000000000000e+00 1.2000000000000000e+01 0.0000000000000000e+00
ITEM: ATOMS id type x y z
1 1 6.97405 6.21026 6.5127
2 2 5.58997 5.16591 4.95248
3 2 4.75613 6.41672 5.57587
4 2 5.00216 5.01472 6.5074
5 2 7.59524 5.18391 6.69097
6 2 6.55278 6.76918 7.49864
7 2 7.35511 6.99742 5.68522
8 3 5.48793 5.66918 5.81719
ITEM: TIMESTEP
1300
ITEM: NUMBER OF ATOMS
8
ITEM: BOX BOUNDS xy xz yz pp pp pp
0.0000000000000000e+00 1.2000000000000000e+01 0.0000000000000000e+00
0.0000000000000000e+00 1.2000000000000000e+01 0.0000000000000000e+00
0.0000000000000000e+00 1.2000000000000000e+01 0.0000000000000000e+00
ITEM: ATOMS id type x y z
1 1 6.91063 6.29019 6.27746
2 2 5.42091 5.09776 5.1496
3 2 4.71784 6.31069 6.02489
4 2 5.28915 4.90356 6.74613
5 2 7.71447 5.36785 6.02049
6 2 6.87516 6.59433 7.47135
7 2 7.09844 7.23268 5.5643
8 3 5.51796 5.61045 5.99394
ITEM: TIMESTEP
1400
ITEM: NUMBER OF ATOMS
8
ITEM: BOX BOUNDS xy xz yz pp pp pp
0.0000000000000000e+00 1.2000000000000000e+01 0.0000000000000000e+00
0.0000000000000000e+00 1.2000000000000000e+01 0.0000000000000000e+00
0.0000000000000000e+00 1.2000000000000000e+01 0.0000000000000000e+00
ITEM: ATOMS id type x y z
1 1 6.94739 6.38391 6.04779
2 2 4.94496 5.42204 5.36692
3 2 4.85445 5.93296 6.92639
4 2 5.80207 4.60197 6.49547
5 2 7.8535 5.64012 5.71645
6 2 7.19908 6.76703 7.20286
7 2 6.79473 7.31633 5.15421
8 3 5.46583 5.52575 6.17928
ITEM: TIMESTEP
1500
ITEM: NUMBER OF ATOMS
8
ITEM: BOX BOUNDS xy xz yz pp pp pp
0.0000000000000000e+00 1.2000000000000000e+01 0.0000000000000000e+00
0.0000000000000000e+00 1.2000000000000000e+01 0.0000000000000000e+00
0.0000000000000000e+00 1.2000000000000000e+01 0.0000000000000000e+00
ITEM: ATOMS id type x y z
1 1 6.83687 6.5083 5.75268
2 2 4.8875 5.15686 5.76577
3 2 5.14303 5.96671 7.19387
4 2 6.08277 4.63131 6.81572
5 2 7.1825 5.83853 4.83987
6 2 7.59862 6.48798 6.67227
7 2 6.3419 7.53492 5.52925
8 3 5.56626 5.43436 6.4102
ITEM: TIMESTEP
1600
ITEM: NUMBER OF ATOMS
8
ITEM: BOX BOUNDS xy xz yz pp pp pp
0.0000000000000000e+00 1.2000000000000000e+01 0.0000000000000000e+00
0.0000000000000000e+00 1.2000000000000000e+01 0.0000000000000000e+00
0.0000000000000000e+00 1.2000000000000000e+01 0.0000000000000000e+00
ITEM: ATOMS id type x y z
1 1 6.59684 6.45649 5.58842
2 2 5.06882 4.92903 6.08025
3 2 5.31317 5.97523 7.37067
4 2 6.46532 4.76915 6.90771
5 2 6.24332 6.20724 4.36733
6 2 7.82286 6.26818 5.91784
7 2 6.23751 7.57386 5.97168
8 3 5.75753 5.46673 6.55128
ITEM: TIMESTEP
1700
ITEM: NUMBER OF ATOMS
8
ITEM: BOX BOUNDS xy xz yz pp pp pp
0.0000000000000000e+00 1.2000000000000000e+01 0.0000000000000000e+00
0.0000000000000000e+00 1.2000000000000000e+01 0.0000000000000000e+00
0.0000000000000000e+00 1.2000000000000000e+01 0.0000000000000000e+00
ITEM: ATOMS id type x y z
1 1 6.38174 6.54317 5.37174
2 2 4.96399 5.12557 6.72538
3 2 6.13425 5.86634 7.68701
4 2 6.52993 4.52542 6.71966
5 2 5.78689 6.16765 4.44276
6 2 7.5304 6.3134 5.24118
7 2 6.13319 7.69513 5.70945
8 3 5.92863 5.40196 6.72487
ITEM: TIMESTEP
1800
ITEM: NUMBER OF ATOMS
8
ITEM: BOX BOUNDS xy xz yz pp pp pp
0.0000000000000000e+00 1.2000000000000000e+01 0.0000000000000000e+00
0.0000000000000000e+00 1.2000000000000000e+01 0.0000000000000000e+00
0.0000000000000000e+00 1.2000000000000000e+01 0.0000000000000000e+00
ITEM: ATOMS id type x y z
1 1 6.10229 6.43737 5.36077
2 2 5.43194 5.62412 7.41753
3 2 7.08529 5.58031 7.27703
4 2 6.13519 4.46543 6.46815
5 2 5.32287 5.85743 4.57722
6 2 7.26444 6.49694 4.96232
7 2 5.65848 7.49249 5.80581
8 3 6.15709 5.4962 6.73457
ITEM: TIMESTEP
1900
ITEM: NUMBER OF ATOMS
8
ITEM: BOX BOUNDS xy xz yz pp pp pp
0.0000000000000000e+00 1.2000000000000000e+01 0.0000000000000000e+00
0.0000000000000000e+00 1.2000000000000000e+01 0.0000000000000000e+00
0.0000000000000000e+00 1.2000000000000000e+01 0.0000000000000000e+00
ITEM: ATOMS id type x y z
1 1 5.90071 6.37427 5.4088
2 2 5.69711 5.70731 7.44893
3 2 7.27958 5.8172 7.07765
4 2 6.30856 4.50597 6.57863
5 2 4.75241 5.9005 5.147
6 2 6.8572 6.12856 4.62471
7 2 5.83157 7.52545 5.76372
8 3 6.32487 5.54 6.68805
ITEM: TIMESTEP
2000
ITEM: NUMBER OF ATOMS
8
ITEM: BOX BOUNDS xy xz yz pp pp pp
0.0000000000000000e+00 1.2000000000000000e+01 0.0000000000000000e+00
0.0000000000000000e+00 1.2000000000000000e+01 0.0000000000000000e+00
0.0000000000000000e+00 1.2000000000000000e+01 0.0000000000000000e+00
ITEM: ATOMS id type x y z
1 1 5.686 6.35909 5.34925
2 2 5.95417 5.67885 7.56813
3 2 7.46189 5.90669 6.90437
4 2 6.60124 4.54123 6.57675
5 2 4.55597 6.05361 5.45604
6 2 6.16543 5.94758 4.34191
7 2 5.96192 7.51403 5.5736
8 3 6.49235 5.54764 6.7497
ITEM: TIMESTEP
2100
ITEM: NUMBER OF ATOMS
8
ITEM: BOX BOUNDS xy xz yz pp pp pp
0.0000000000000000e+00 1.2000000000000000e+01 0.0000000000000000e+00
0.0000000000000000e+00 1.2000000000000000e+01 0.0000000000000000e+00
0.0000000000000000e+00 1.2000000000000000e+01 0.0000000000000000e+00
ITEM: ATOMS id type x y z
1 1 5.56619 6.28577 5.4587
2 2 6.42227 6.08295 7.51688
3 2 7.5959 5.79268 6.42602
4 2 6.45551 4.58553 6.83387
5 2 4.42192 5.85449 5.72525
6 2 5.96341 5.85835 4.35827
7 2 5.67185 7.5514 5.56573
8 3 6.5969 5.59824 6.66489
ITEM: TIMESTEP
2200
ITEM: NUMBER OF ATOMS
8
ITEM: BOX BOUNDS xy xz yz pp pp pp
0.0000000000000000e+00 1.2000000000000000e+01 0.0000000000000000e+00
0.0000000000000000e+00 1.2000000000000000e+01 0.0000000000000000e+00
0.0000000000000000e+00 1.2000000000000000e+01 0.0000000000000000e+00
ITEM: ATOMS id type x y z
1 1 5.48714 6.14688 5.63683
2 2 6.76788 6.38621 7.2351
3 2 7.55608 5.64224 5.93016
4 2 6.47352 4.78318 6.96658
5 2 4.48247 5.90326 6.2833
6 2 5.64545 5.6337 4.56661
7 2 5.62037 7.29622 5.6755
8 3 6.65681 5.71114 6.51095
ITEM: TIMESTEP
2300
ITEM: NUMBER OF ATOMS
8
ITEM: BOX BOUNDS xy xz yz pp pp pp
0.0000000000000000e+00 1.2000000000000000e+01 0.0000000000000000e+00
0.0000000000000000e+00 1.2000000000000000e+01 0.0000000000000000e+00
0.0000000000000000e+00 1.2000000000000000e+01 0.0000000000000000e+00
ITEM: ATOMS id type x y z
1 1 5.21019 6.09207 5.78229
2 2 6.94068 6.28719 7.26073
3 2 7.62187 6.12552 5.70557
4 2 7.06149 4.73259 6.55322
5 2 4.57402 6.38388 6.78896
6 2 4.81548 5.02276 5.30577
7 2 5.39294 6.96412 4.88076
8 3 6.88041 5.76262 6.41034
ITEM: TIMESTEP
2400
ITEM: NUMBER OF ATOMS
8
ITEM: BOX BOUNDS xy xz yz pp pp pp
0.0000000000000000e+00 1.2000000000000000e+01 0.0000000000000000e+00
0.0000000000000000e+00 1.2000000000000000e+01 0.0000000000000000e+00
0.0000000000000000e+00 1.2000000000000000e+01 0.0000000000000000e+00
ITEM: ATOMS id type x y z
1 1 5.15861 5.95469 6.04855
2 2 7.192 6.24764 7.07487
3 2 7.40707 6.47545 5.44878
4 2 7.28124 4.87861 6.19765
5 2 4.8611 6.83557 6.82679
6 2 4.62597 4.91584 6.38532
7 2 4.92636 6.22023 4.84789
8 3 6.92825 5.86451 6.18448
ITEM: TIMESTEP
2500
ITEM: NUMBER OF ATOMS
8
ITEM: BOX BOUNDS xy xz yz pp pp pp
0.0000000000000000e+00 1.2000000000000000e+01 0.0000000000000000e+00
0.0000000000000000e+00 1.2000000000000000e+01 0.0000000000000000e+00
0.0000000000000000e+00 1.2000000000000000e+01 0.0000000000000000e+00
ITEM: ATOMS id type x y z
1 1 5.29711 5.88638 6.2434
2 2 7.30798 6.00487 6.89788
3 2 7.13342 6.72446 5.41765
4 2 7.18911 5.10908 5.53586
5 2 4.91822 7.0497 6.32021
6 2 5.18537 5.20986 7.25493
7 2 4.87289 5.39182 5.26792
8 3 6.79903 5.92317 6.04038
ITEM: TIMESTEP
2600
ITEM: NUMBER OF ATOMS
8
ITEM: BOX BOUNDS xy xz yz pp pp pp
0.0000000000000000e+00 1.2000000000000000e+01 0.0000000000000000e+00
0.0000000000000000e+00 1.2000000000000000e+01 0.0000000000000000e+00
0.0000000000000000e+00 1.2000000000000000e+01 0.0000000000000000e+00
ITEM: ATOMS id type x y z
1 1 5.17247 5.8195 6.4423
2 2 7.53968 6.4098 6.51912
3 2 7.0273 6.52008 4.97691
4 2 7.24652 5.0408 5.72293
5 2 4.80998 7.00942 6.53436
6 2 5.30716 5.21625 7.52007
7 2 4.65746 5.11809 5.53159
8 3 6.89653 5.98729 5.87904
ITEM: TIMESTEP
2700
ITEM: NUMBER OF ATOMS
8
ITEM: BOX BOUNDS xy xz yz pp pp pp
0.0000000000000000e+00 1.2000000000000000e+01 0.0000000000000000e+00
0.0000000000000000e+00 1.2000000000000000e+01 0.0000000000000000e+00
0.0000000000000000e+00 1.2000000000000000e+01 0.0000000000000000e+00
ITEM: ATOMS id type x y z
1 1 5.24676 5.78633 6.61385
2 2 7.42292 6.73947 6.11547
3 2 6.72241 6.23456 4.70893
4 2 7.40061 5.16145 5.78482
5 2 4.69788 6.80335 6.76514
6 2 5.57399 5.30926 7.64751
7 2 4.64061 4.97292 5.92479
8 3 6.84848 6.01955 5.73659
ITEM: TIMESTEP
2800
ITEM: NUMBER OF ATOMS
8
ITEM: BOX BOUNDS xy xz yz pp pp pp
0.0000000000000000e+00 1.2000000000000000e+01 0.0000000000000000e+00
0.0000000000000000e+00 1.2000000000000000e+01 0.0000000000000000e+00
0.0000000000000000e+00 1.2000000000000000e+01 0.0000000000000000e+00
ITEM: ATOMS id type x y z
1 1 5.5228 5.74718 6.72422
2 2 7.2069 6.82186 5.88127
3 2 6.29855 6.16331 4.63564
4 2 7.21136 5.19688 5.61934
5 2 4.66967 6.67104 6.52069
6 2 6.17867 5.77666 7.7976
7 2 5.10176 4.64949 6.45183
8 3 6.62065 6.0456 5.65432
ITEM: TIMESTEP
2900
ITEM: NUMBER OF ATOMS
8
ITEM: BOX BOUNDS xy xz yz pp pp pp
0.0000000000000000e+00 1.2000000000000000e+01 0.0000000000000000e+00
0.0000000000000000e+00 1.2000000000000000e+01 0.0000000000000000e+00
0.0000000000000000e+00 1.2000000000000000e+01 0.0000000000000000e+00
ITEM: ATOMS id type x y z
1 1 5.70176 5.74716 6.88996
2 2 6.6524 7.03002 5.41709
3 2 5.89077 5.73351 4.65938
4 2 7.40819 5.59602 5.56533
5 2 4.63554 6.42061 6.84092
6 2 6.51669 6.10438 7.78207
7 2 5.56175 4.55084 6.79804
8 3 6.48271 6.03445 5.51529
ITEM: TIMESTEP
3000
ITEM: NUMBER OF ATOMS
8
ITEM: BOX BOUNDS xy xz yz pp pp pp
0.0000000000000000e+00 1.2000000000000000e+01 0.0000000000000000e+00
0.0000000000000000e+00 1.2000000000000000e+01 0.0000000000000000e+00
0.0000000000000000e+00 1.2000000000000000e+01 0.0000000000000000e+00
ITEM: ATOMS id type x y z
1 1 5.88662 5.72799 7.11444
2 2 6.1939 7.04406 5.09457
3 2 5.7402 5.41158 4.71619
4 2 7.30902 5.76722 5.14239
5 2 4.77054 6.05615 7.19935
6 2 6.58444 6.43709 7.74424
7 2 6.02248 4.52299 7.34395
8 3 6.3433 6.06327 5.32941
ITEM: TIMESTEP
3100
ITEM: NUMBER OF ATOMS
8
ITEM: BOX BOUNDS xy xz yz pp pp pp
0.0000000000000000e+00 1.2000000000000000e+01 0.0000000000000000e+00
0.0000000000000000e+00 1.2000000000000000e+01 0.0000000000000000e+00
0.0000000000000000e+00 1.2000000000000000e+01 0.0000000000000000e+00
ITEM: ATOMS id type x y z
1 1 6.09603 5.77563 7.17829
2 2 5.75994 6.92535 5.08563
3 2 5.5561 5.28072 4.82091
4 2 7.13124 6.01877 4.92967
5 2 4.85198 5.80435 7.34344
6 2 6.78351 6.71204 7.61128
7 2 6.63318 4.64723 7.26647
8 3 6.17494 6.01584 5.29325
ITEM: TIMESTEP
3200
ITEM: NUMBER OF ATOMS
8
ITEM: BOX BOUNDS xy xz yz pp pp pp
0.0000000000000000e+00 1.2000000000000000e+01 0.0000000000000000e+00
0.0000000000000000e+00 1.2000000000000000e+01 0.0000000000000000e+00
0.0000000000000000e+00 1.2000000000000000e+01 0.0000000000000000e+00
ITEM: ATOMS id type x y z
1 1 6.28743 5.82044 7.02813
2 2 5.35346 6.71555 5.24092
3 2 5.61294 5.06329 5.05497
4 2 6.85219 6.1512 4.85171
5 2 5.1176 5.6536 7.40266
6 2 6.77815 6.90821 7.29568
7 2 7.00628 4.92033 7.13528
8 3 6.02695 5.97958 5.41453
ITEM: TIMESTEP
3300
ITEM: NUMBER OF ATOMS
8
ITEM: BOX BOUNDS xy xz yz pp pp pp
0.0000000000000000e+00 1.2000000000000000e+01 0.0000000000000000e+00
0.0000000000000000e+00 1.2000000000000000e+01 0.0000000000000000e+00
0.0000000000000000e+00 1.2000000000000000e+01 0.0000000000000000e+00
ITEM: ATOMS id type x y z
1 1 6.43998 5.9123 6.88791
2 2 5.06391 6.49615 5.43443
3 2 5.61593 4.9434 5.17232
4 2 6.51748 6.24856 4.79677
5 2 5.60494 5.39905 7.60152
6 2 6.65475 7.03049 7.337
7 2 7.4557 5.15684 6.92764
8 3 5.89555 5.91855 5.5021
ITEM: TIMESTEP
3400
ITEM: NUMBER OF ATOMS
8
ITEM: BOX BOUNDS xy xz yz pp pp pp
0.0000000000000000e+00 1.2000000000000000e+01 0.0000000000000000e+00
0.0000000000000000e+00 1.2000000000000000e+01 0.0000000000000000e+00
0.0000000000000000e+00 1.2000000000000000e+01 0.0000000000000000e+00
ITEM: ATOMS id type x y z
1 1 6.81474 6.02819 6.98542
2 2 4.60602 5.97815 5.6156
3 2 5.60295 4.83922 5.03917
4 2 5.86301 6.47682 4.77701
5 2 6.38835 5.28268 7.81965
6 2 6.69181 7.21447 7.23336
7 2 7.95197 5.65968 6.48648
8 3 5.59278 5.81654 5.44818
ITEM: TIMESTEP
3500
ITEM: NUMBER OF ATOMS
8
ITEM: BOX BOUNDS xy xz yz pp pp pp
0.0000000000000000e+00 1.2000000000000000e+01 0.0000000000000000e+00
0.0000000000000000e+00 1.2000000000000000e+01 0.0000000000000000e+00
0.0000000000000000e+00 1.2000000000000000e+01 0.0000000000000000e+00
ITEM: ATOMS id type x y z
1 1 7.04068 6.17725 6.74632
2 2 4.54882 5.65726 6.17409
3 2 5.56442 4.81198 5.07242
4 2 5.34599 6.40682 4.9595
5 2 7.10683 5.21411 7.49508
6 2 6.6297 7.24205 7.12482
7 2 7.74875 6.26381 5.85594
8 3 5.42988 5.6912 5.65331
ITEM: TIMESTEP
3600
ITEM: NUMBER OF ATOMS
8
ITEM: BOX BOUNDS xy xz yz pp pp pp
0.0000000000000000e+00 1.2000000000000000e+01 0.0000000000000000e+00
0.0000000000000000e+00 1.2000000000000000e+01 0.0000000000000000e+00
0.0000000000000000e+00 1.2000000000000000e+01 0.0000000000000000e+00
ITEM: ATOMS id type x y z
1 1 6.94325 6.22571 6.43855
2 2 4.80307 5.39098 6.63021
3 2 5.613 4.78122 5.26047
4 2 5.09426 6.41978 5.34716
5 2 7.54542 5.292 7.03155
6 2 6.66797 7.19468 7.21231
7 2 7.53409 6.59927 5.38201
8 3 5.48267 5.64797 5.87774
ITEM: TIMESTEP
3700
ITEM: NUMBER OF ATOMS
8
ITEM: BOX BOUNDS xy xz yz pp pp pp
0.0000000000000000e+00 1.2000000000000000e+01 0.0000000000000000e+00
0.0000000000000000e+00 1.2000000000000000e+01 0.0000000000000000e+00
0.0000000000000000e+00 1.2000000000000000e+01 0.0000000000000000e+00
ITEM: ATOMS id type x y z
1 1 6.86888 6.24843 6.25435
2 2 5.21123 5.07402 6.86234
3 2 5.55114 4.99291 5.16186
4 2 4.85997 6.35859 5.83218
5 2 7.60766 5.4653 6.69968
6 2 6.6726 7.08341 7.06749
7 2 7.28101 6.64363 5.15085
8 3 5.54533 5.63473 6.02622
ITEM: TIMESTEP
3800
ITEM: NUMBER OF ATOMS
8
ITEM: BOX BOUNDS xy xz yz pp pp pp
0.0000000000000000e+00 1.2000000000000000e+01 0.0000000000000000e+00
0.0000000000000000e+00 1.2000000000000000e+01 0.0000000000000000e+00
0.0000000000000000e+00 1.2000000000000000e+01 0.0000000000000000e+00
ITEM: ATOMS id type x y z
1 1 6.99341 6.37565 6.12335
2 2 5.29879 5.12703 7.0933
3 2 5.43465 4.7474 5.41628
4 2 4.68078 6.15965 5.94032
5 2 7.78886 5.41849 6.05733
6 2 6.97605 7.06654 7.14175
7 2 6.95661 7.07991 5.12747
8 3 5.45269 5.53793 6.12713
ITEM: TIMESTEP
3900
ITEM: NUMBER OF ATOMS
8
ITEM: BOX BOUNDS xy xz yz pp pp pp
0.0000000000000000e+00 1.2000000000000000e+01 0.0000000000000000e+00
0.0000000000000000e+00 1.2000000000000000e+01 0.0000000000000000e+00
0.0000000000000000e+00 1.2000000000000000e+01 0.0000000000000000e+00
ITEM: ATOMS id type x y z
1 1 7.03739 6.48806 5.92295
2 2 5.65004 4.75075 7.01781
3 2 5.20082 4.90108 5.42921
4 2 4.62373 5.97698 6.56127
5 2 7.83359 5.52255 5.81443
6 2 7.05538 7.1864 6.95911
7 2 6.74524 7.09573 4.95428
8 3 5.42068 5.46304 6.2846
ITEM: TIMESTEP
4000
ITEM: NUMBER OF ATOMS
8
ITEM: BOX BOUNDS xy xz yz pp pp pp
0.0000000000000000e+00 1.2000000000000000e+01 0.0000000000000000e+00
0.0000000000000000e+00 1.2000000000000000e+01 0.0000000000000000e+00
0.0000000000000000e+00 1.2000000000000000e+01 0.0000000000000000e+00
ITEM: ATOMS id type x y z
1 1 6.88969 6.55413 5.70985
2 2 6.03163 4.65898 6.96662
3 2 4.88875 5.01956 5.75681
4 2 4.95754 5.83845 7.11595
5 2 7.63611 5.7526 5.33592
6 2 7.35597 7.12251 6.61345
7 2 6.28266 7.08355 4.77549
8 3 5.53149 5.40906 6.46127
ITEM: TIMESTEP
4100
ITEM: NUMBER OF ATOMS
8
ITEM: BOX BOUNDS xy xz yz pp pp pp
0.0000000000000000e+00 1.2000000000000000e+01 0.0000000000000000e+00
0.0000000000000000e+00 1.2000000000000000e+01 0.0000000000000000e+00
0.0000000000000000e+00 1.2000000000000000e+01 0.0000000000000000e+00
ITEM: ATOMS id type x y z
1 1 6.55345 6.39991 5.64432
2 2 6.40534 4.82709 7.0303
3 2 5.19057 4.88901 5.9605
4 2 5.24073 5.94597 7.19331
5 2 6.92449 5.75183 4.64101
6 2 7.49326 6.82363 6.36774
7 2 5.81926 7.39512 5.27731
8 3 5.79652 5.51681 6.51854
ITEM: TIMESTEP
4200
ITEM: NUMBER OF ATOMS
8
ITEM: BOX BOUNDS xy xz yz pp pp pp
0.0000000000000000e+00 1.2000000000000000e+01 0.0000000000000000e+00
0.0000000000000000e+00 1.2000000000000000e+01 0.0000000000000000e+00
0.0000000000000000e+00 1.2000000000000000e+01 0.0000000000000000e+00
ITEM: ATOMS id type x y z
1 1 6.47071 6.50525 5.44051
2 2 6.53518 4.62262 6.87767
3 2 4.94373 5.04029 6.41398
4 2 5.74119 5.93021 7.51902
5 2 6.56908 5.78557 4.44494
6 2 7.48403 7.00879 5.89513
7 2 5.65711 7.32913 5.39704
8 3 5.87059 5.42956 6.67022
ITEM: TIMESTEP
4300
ITEM: NUMBER OF ATOMS
8
ITEM: BOX BOUNDS xy xz yz pp pp pp
0.0000000000000000e+00 1.2000000000000000e+01 0.0000000000000000e+00
0.0000000000000000e+00 1.2000000000000000e+01 0.0000000000000000e+00
0.0000000000000000e+00 1.2000000000000000e+01 0.0000000000000000e+00
ITEM: ATOMS id type x y z
1 1 6.30693 6.57086 5.27915
2 2 6.65443 4.52792 6.80859
3 2 5.00247 5.0903 6.79083
4 2 6.17034 5.9177 7.63815
5 2 6.16804 5.83793 4.3191
6 2 7.47514 6.8216 5.5035
7 2 5.36908 7.34859 5.47981
8 3 6.00342 5.39127 6.79526
ITEM: TIMESTEP
4400
ITEM: NUMBER OF ATOMS
8
ITEM: BOX BOUNDS xy xz yz pp pp pp
0.0000000000000000e+00 1.2000000000000000e+01 0.0000000000000000e+00
0.0000000000000000e+00 1.2000000000000000e+01 0.0000000000000000e+00
0.0000000000000000e+00 1.2000000000000000e+01 0.0000000000000000e+00
ITEM: ATOMS id type x y z
1 1 6.11276 6.52016 5.24738
2 2 6.80127 4.56503 6.67756
3 2 5.21846 5.03529 7.06337
4 2 6.51274 5.99675 7.5727
5 2 5.58969 5.82143 4.42931
6 2 7.28185 6.79643 5.0422
7 2 5.36957 7.47889 5.64583
8 3 6.15792 5.41968 6.82755
ITEM: TIMESTEP
4500
ITEM: NUMBER OF ATOMS
8
ITEM: BOX BOUNDS xy xz yz pp pp pp
0.0000000000000000e+00 1.2000000000000000e+01 0.0000000000000000e+00
0.0000000000000000e+00 1.2000000000000000e+01 0.0000000000000000e+00
0.0000000000000000e+00 1.2000000000000000e+01 0.0000000000000000e+00
ITEM: ATOMS id type x y z
1 1 5.93029 6.40006 5.3608
2 2 6.83509 4.62987 6.4684
3 2 5.41665 5.3082 7.22019
4 2 6.87192 6.01383 7.39307
5 2 5.19084 5.64275 4.74043
6 2 6.9969 6.68384 4.84157
7 2 5.45924 7.39064 5.74233
8 3 6.29889 5.5141 6.74184
ITEM: TIMESTEP
4600
ITEM: NUMBER OF ATOMS
8
ITEM: BOX BOUNDS xy xz yz pp pp pp
0.0000000000000000e+00 1.2000000000000000e+01 0.0000000000000000e+00
0.0000000000000000e+00 1.2000000000000000e+01 0.0000000000000000e+00
0.0000000000000000e+00 1.2000000000000000e+01 0.0000000000000000e+00
ITEM: ATOMS id type x y z
1 1 5.78752 6.33565 5.4499
2 2 6.51043 4.55157 6.44025
3 2 5.78491 5.57574 7.44602
4 2 7.30747 5.9248 7.00304
5 2 4.94153 5.48027 4.98035
6 2 6.7766 6.4178 4.67263
7 2 5.19256 7.31365 5.89163
8 3 6.42739 5.59273 6.67111
ITEM: TIMESTEP
4700
ITEM: NUMBER OF ATOMS
8
ITEM: BOX BOUNDS xy xz yz pp pp pp
0.0000000000000000e+00 1.2000000000000000e+01 0.0000000000000000e+00
0.0000000000000000e+00 1.2000000000000000e+01 0.0000000000000000e+00
0.0000000000000000e+00 1.2000000000000000e+01 0.0000000000000000e+00
ITEM: ATOMS id type x y z
1 1 5.43844 6.34163 5.32183
2 2 7.05234 4.63487 6.3984
3 2 6.33128 5.42189 7.68954
4 2 7.49545 6.13207 6.87676
5 2 4.45749 5.78125 5.59681
6 2 5.91923 6.05737 4.28393
7 2 5.43353 7.55458 5.60861
8 3 6.68412 5.56539 6.76847
ITEM: TIMESTEP
4800
ITEM: NUMBER OF ATOMS
8
ITEM: BOX BOUNDS xy xz yz pp pp pp
0.0000000000000000e+00 1.2000000000000000e+01 0.0000000000000000e+00
0.0000000000000000e+00 1.2000000000000000e+01 0.0000000000000000e+00
0.0000000000000000e+00 1.2000000000000000e+01 0.0000000000000000e+00
ITEM: ATOMS id type x y z
1 1 5.29818 6.21467 5.55198
2 2 7.13437 4.69578 6.31478
3 2 6.56312 5.62599 7.56402
4 2 7.57298 6.29592 6.50242
5 2 4.34345 5.84304 6.20945
6 2 5.57332 5.60448 4.53139
7 2 5.51697 7.41262 5.41239
8 3 6.79126 5.67077 6.58518
ITEM: TIMESTEP
4900
ITEM: NUMBER OF ATOMS
8
ITEM: BOX BOUNDS xy xz yz pp pp pp
0.0000000000000000e+00 1.2000000000000000e+01 0.0000000000000000e+00
0.0000000000000000e+00 1.2000000000000000e+01 0.0000000000000000e+00
0.0000000000000000e+00 1.2000000000000000e+01 0.0000000000000000e+00
ITEM: ATOMS id type x y z
1 1 5.41221 6.09454 5.75734
2 2 6.86499 4.7152 6.56228
3 2 6.83488 6.19618 7.33166
4 2 7.43811 6.11355 5.78588
5 2 4.48518 5.63362 6.49805
6 2 5.49372 5.52266 4.65092
7 2 5.40887 7.28779 5.75657
8 3 6.71605 5.76408 6.42313
ITEM: TIMESTEP
5000
ITEM: NUMBER OF ATOMS
8
ITEM: BOX BOUNDS xy xz yz pp pp pp
0.0000000000000000e+00 1.2000000000000000e+01 0.0000000000000000e+00
0.0000000000000000e+00 1.2000000000000000e+01 0.0000000000000000e+00
0.0000000000000000e+00 1.2000000000000000e+01 0.0000000000000000e+00
ITEM: ATOMS id type x y z
1 1 5.30985 6.04315 5.84419
2 2 6.94168 4.85169 6.85123
3 2 7.13557 6.58685 6.91046
4 2 7.4081 5.75199 5.52227
5 2 4.49875 5.54008 6.57128
6 2 5.18207 5.57889 4.73923
7 2 5.12045 7.24473 5.80493
8 3 6.81209 5.79763 6.36942
ITEM: TIMESTEP
5100
ITEM: NUMBER OF ATOMS
8
ITEM: BOX BOUNDS xy xz yz pp pp pp
0.0000000000000000e+00 1.2000000000000000e+01 0.0000000000000000e+00
0.0000000000000000e+00 1.2000000000000000e+01 0.0000000000000000e+00
0.0000000000000000e+00 1.2000000000000000e+01 0.0000000000000000e+00
ITEM: ATOMS id type x y z
1 1 5.12815 6.00376 5.96798
2 2 7.27294 4.84616 6.50225
3 2 7.17579 6.35775 7.08791
4 2 7.43569 6.22652 5.4408
5 2 4.64458 5.97657 7.07162
6 2 4.93616 5.02486 5.24261
7 2 5.13186 7.07519 5.26573
8 3 6.93009 5.83139 6.25881
ITEM: TIMESTEP
5200
ITEM: NUMBER OF ATOMS
8
ITEM: BOX BOUNDS xy xz yz pp pp pp
0.0000000000000000e+00 1.2000000000000000e+01 0.0000000000000000e+00
0.0000000000000000e+00 1.2000000000000000e+01 0.0000000000000000e+00
0.0000000000000000e+00 1.2000000000000000e+01 0.0000000000000000e+00
ITEM: ATOMS id type x y z
1 1 4.97527 5.90956 6.13385
2 2 7.40546 4.90855 6.01709
3 2 7.47484 6.36956 6.89514
4 2 7.36878 6.39479 5.26412
5 2 4.91995 6.44742 7.24023
6 2 4.82559 4.70095 6.07376
7 2 4.89912 6.63371 5.21512
8 3 7.02682 5.90778 6.1241
ITEM: TIMESTEP
5300
ITEM: NUMBER OF ATOMS
8
ITEM: BOX BOUNDS xy xz yz pp pp pp
0.0000000000000000e+00 1.2000000000000000e+01 0.0000000000000000e+00
0.0000000000000000e+00 1.2000000000000000e+01 0.0000000000000000e+00
0.0000000000000000e+00 1.2000000000000000e+01 0.0000000000000000e+00
ITEM: ATOMS id type x y z
1 1 5.34875 5.85014 6.35283
2 2 7.30002 5.03429 5.85505
3 2 7.32411 6.48453 6.6078
4 2 6.93654 6.47034 5.02787
5 2 4.91776 6.68162 7.1181
6 2 5.18377 4.73811 6.83066
7 2 4.55686 5.96606 5.48043
8 3 6.78691 5.95933 5.93985
ITEM: TIMESTEP
5400
ITEM: NUMBER OF ATOMS
8
ITEM: BOX BOUNDS xy xz yz pp pp pp
0.0000000000000000e+00 1.2000000000000000e+01 0.0000000000000000e+00
0.0000000000000000e+00 1.2000000000000000e+01 0.0000000000000000e+00
0.0000000000000000e+00 1.2000000000000000e+01 0.0000000000000000e+00
ITEM: ATOMS id type x y z
1 1 5.27147 5.75849 6.60754
2 2 7.14513 5.19999 5.22434
3 2 7.50108 6.16229 6.44412
4 2 6.83117 6.84507 5.07144
5 2 4.9073 6.9347 6.74316
6 2 5.67118 5.22893 7.63881
7 2 4.61072 4.89624 5.88162
8 3 6.81456 6.03773 5.7374
ITEM: TIMESTEP
5500
ITEM: NUMBER OF ATOMS
8
ITEM: BOX BOUNDS xy xz yz pp pp pp
0.0000000000000000e+00 1.2000000000000000e+01 0.0000000000000000e+00
0.0000000000000000e+00 1.2000000000000000e+01 0.0000000000000000e+00
0.0000000000000000e+00 1.2000000000000000e+01 0.0000000000000000e+00
ITEM: ATOMS id type x y z
1 1 5.3257 5.70283 6.84348
2 2 7.08399 5.22786 5.06047
3 2 7.44957 6.4964 6.1215
4 2 6.51048 6.77041 4.84722
5 2 4.77466 6.77898 6.83374
6 2 6.07481 5.54243 7.76503
7 2 4.87863 4.76404 6.2749
8 3 6.76518 6.05831 5.56257
ITEM: TIMESTEP
5600
ITEM: NUMBER OF ATOMS
8
ITEM: BOX BOUNDS xy xz yz pp pp pp