8
 Atoms. Timestep: 0
B 5.74046 6.33007 5.41224
H 7.13765 6.17173 7.19603
H 6.99131 4.6591 6.48592
H 5.76199 5.3298 7.42483
H 5.30281 7.3409 5.86648
H 4.86235 5.64183 4.93919
H 6.6291 6.51884 4.57517
N 6.45143 5.56858 6.69633
8
 Atoms. Timestep: 20
B 5.69914 6.32617 5.39414
H 7.20027 6.25253 7.02132
H 6.95719 4.6213 6.46847
H 5.77378 5.41241 7.41774
H 5.29364 7.37814 5.89224
H 4.81011 5.55228 5.18547
H 6.50975 6.55746 4.6124
N 6.49334 5.5636 6.70243
8
 Atoms. Timestep: 40
B 5.66231 6.30542 5.435
H 7.33431 6.15349 7.0218
H 6.927 4.63347 6.40689
H 5.9298 5.46152 7.51549
H 5.25708 7.36719 5.97606
H 4.76896 5.46705 5.16696
H 6.46231 6.40902 4.48344
N 6.51213 5.59977 6.67284
8
 Atoms. Timestep: 60
B 5.63253 6.2662 5.49825
H 7.42601 6.14944 6.86184
H 6.82079 4.64157 6.30204
H 6.01948 5.46624 7.5308
H 5.21156 7.34142 5.84664
H 4.70866 5.49424 5.2149
H 6.40863 6.3594 4.46471
N 6.54113 5.63284 6.64903
8
 Atoms. Timestep: 80
B 5.58624 6.25754 5.49823
H 7.42845 6.22361 6.68868
H 6.85778 4.64603 6.28382
H 6.14263 5.58383 7.57445
H 5.23585 7.33511 5.84431
H 4.72022 5.43814 5.48171
H 6.33517 6.35123 4.57683
N 6.56791 5.63055 6.63269
8
 Atoms. Timestep: 100
B 5.53452 6.24841 5.49841
H 7.4916 6.21485 6.63502
H 6.95015 4.61856 6.46555
H 6.2848 5.61806 7.60644
H 5.23254 7.35844 5.99983
H 4.60728 5.43992 5.47357
H 6.10677 6.23867 4.46235
N 6.61116 5.64398 6.61877
8
 Atoms. Timestep: 120
B 5.4794 6.21272 5.53009
H 7.53074 6.24692 6.55569
H 6.94051 4.61678 6.42249
H 6.24406 5.78579 7.54006
H 5.24458 7.3725 5.98095
H 4.45181 5.49343 5.55819
H 5.96396 6.24999 4.34673
N 6.67493 5.65174 6.61138
8
 Atoms. Timestep: 140
B 5.43289 6.19929 5.56238
H 7.56737 6.23919 6.44705
H 6.94342 4.62292 6.4813
H 6.36847 5.77416 7.54187
H 5.26491 7.30875 5.9139
H 4.56741 5.43098 5.89436
H 5.97308 6.18286 4.4259
N 6.68874 5.67685 6.56502
8
 Atoms. Timestep: 160
B 5.44164 6.17531 5.62472
H 7.57833 6.21495 6.30578
H 6.94315 4.67031 6.3307
H 6.58124 5.83051 7.54747
H 5.18882 7.31347 5.90718
H 4.5815 5.39379 5.94191
H 5.71461 5.92399 4.51167
N 6.68892 5.71048 6.52834
8
 Atoms. Timestep: 180
B 5.41339 6.11711 5.69544
H 7.52703 6.28875 6.11081
H 6.83329 4.6911 6.26713
H 6.64344 5.83983 7.50542
H 5.17129 7.38041 5.83349
H 4.42966 5.4413 6.08718
H 5.61863 5.83538 4.52382
N 6.73673 5.74611 6.48927
8
 Atoms. Timestep: 200
B 5.30839 6.09759 5.72668
H 7.56726 6.28571 6.05713
H 7.1087 4.72997 6.34418
H 6.82002 5.95474 7.45159
H 5.27632 7.33147 5.81393
H 4.51511 5.47445 6.44201
H 5.62817 5.77273 4.52536
N 6.76829 5.75601 6.44329
8
 Atoms. Timestep: 220
B 5.2714 6.09303 5.7599
H 7.46396 6.35437 5.88021
H 7.17759 4.74458 6.40631
H 6.84758 6.08433 7.38602
H 5.17006 7.23661 5.848
H 4.52474 5.51102 6.47895
H 5.14061 5.57972 4.6513
N 6.83904 5.76227 6.41648
8
 Atoms. Timestep: 240
B 5.23552 6.03486 5.82408
H 7.5289 6.29284 5.77028
H 7.14488 4.76624 6.36533
H 6.88561 6.18285 7.29628
H 5.14073 7.27907 5.80372
H 4.52297 5.55139 6.69637
H 5.03577 5.55075 4.77464
N 6.87141 5.7991 6.36298
8
 Atoms. Timestep: 260
B 5.21532 5.99556 5.91557
H 7.56269 6.2274 5.69235
H 7.11604 4.81053 6.40894
H 7.08482 6.21303 7.19669
H 5.1485 7.28131 5.73887
H 4.69376 5.55397 6.96973
H 5.21982 5.39981 4.83643
N 6.84651 5.83921 6.28266
8
 Atoms. Timestep: 280
B 5.27925 5.99524 5.98664
H 7.31412 6.18722 5.4331
H 7.03068 4.82465 6.30909
H 7.14353 6.35159 7.07775
H 4.90487 7.10754 5.76865
H 4.71148 5.51862 6.95481
H 4.99121 5.14892 5.06866
N 6.84931 5.86428 6.24434
8
 Atoms. Timestep: 300
B 5.25822 5.94494 6.05894
H 7.24804 6.18723 5.34063
H 7.16759 4.89601 6.37379
H 7.29863 6.44477 6.8943
H 4.93846 7.02784 5.76364
H 4.82188 5.60542 7.12498
H 4.95132 5.17044 5.18472
N 6.84197 5.88929 6.18356
8
 Atoms. Timestep: 320
B 5.18648 5.89551 6.14059
H 7.26058 6.10532 5.24105
H 7.32053 4.98662 6.37935
H 7.22136 6.59564 6.77787
H 5.04065 7.11799 5.77833
H 4.91599 5.68817 7.33099
H 4.97705 5.11536 5.27373
N 6.87515 5.90761 6.11348
8
 Atoms. Timestep: 340
B 5.18954 5.89161 6.19174
H 7.15473 6.10341 5.13922
H 7.3776 5.05441 6.45348
H 7.17018 6.72336 6.61412
H 4.77907 7.05623 5.85216
H 4.8998 5.63577 7.38129
H 4.6969 4.96587 5.49968
N 6.91978 5.91562 6.06269
8
 Atoms. Timestep: 360
B 5.1855 5.87128 6.2534
H 7.174 5.95618 5.08619
H 7.43388 5.12846 6.40951
H 7.30781 6.75376 6.46798
H 4.78201 6.8947 5.88151
H 5.14141 5.6985 7.44085
H 4.74487 4.91679 5.57534
N 6.88678 5.94492 6.02074
8
 Atoms. Timestep: 380
B 5.22832 5.84163 6.32127
H 7.03925 5.91355 5.01346
H 7.27207 5.13475 6.46071
H 7.29159 6.81432 6.3117
H 4.81137 6.88105 5.89987
H 5.22444 5.76655 7.5239
H 4.98178 4.868 5.67712
N 6.85114 5.96566 5.96656
8
 Atoms. Timestep: 400
B 5.3129 5.8396 6.36269
H 6.88962 5.85256 4.96124
H 7.37313 5.19351 6.38416
H 7.25673 6.85528 6.21518
H 4.58727 6.82287 5.89583
H 5.16506 5.73242 7.60682
H 4.91478 4.77473 5.91354
N 6.81688 5.97772 5.92818
8
 Atoms. Timestep: 420
B 5.29468 5.81333 6.42429
H 6.83767 5.9026 4.91752
H 7.53607 5.29542 6.2508
H 7.21691 6.92042 6.04398
H 4.6583 6.73409 5.86885
H 5.42036 5.91035 7.65709
H 4.90162 4.6936 6.01878
N 6.80349 5.98191 5.89636
8
 Atoms. Timestep: 440
B 5.27012 5.78599 6.50405
H 6.7806 5.86866 4.85145
H 7.53351 5.3374 6.25109
H 7.07243 6.9666 6.07655
H 4.73662 6.63789 5.96485
H 5.45499 6.05631 7.63598
H 4.96542 4.6463 6.20073
N 6.82438 5.99895 5.81886
8
 Atoms. Timestep: 460
B 5.29683 5.77549 6.55742
H 6.8425 5.89539 4.78913
H 7.58572 5.38328 6.16954
H 7.10842 6.99386 5.92879
H 4.4929 6.55826 5.97616
H 5.42766 6.03873 7.75253
H 4.95765 4.62389 6.46425
N 6.81297 6.00846 5.77056
8
 Atoms. Timestep: 480
B 5.32551 5.76727 6.59643
H 6.68694 5.80581 4.78351
H 7.55787 5.39762 6.13936
H 7.149 6.99993 5.83372
H 4.39945 6.44336 5.96426
H 5.66367 6.16771 7.75351
H 5.15686 4.55349 6.50775
N 6.77664 6.02376 5.74749
8
 Atoms. Timestep: 500
B 5.39565 5.76183 6.62326
H 6.52772 5.75067 4.79413
H 7.47658 5.37506 6.12539
H 7.04839 7.02916 5.71896
H 4.52687 6.34678 6.08076
H 5.6482 6.26125 7.68543
H 5.34729 4.53696 6.58905
N 6.7253 6.03282 5.72597
8
 Atoms. Timestep: 520
B 5.46866 5.76846 6.65705
H 6.51768 5.73312 4.75458
H 7.59305 5.53335 5.99371
H 6.99055 7.03864 5.6247
H 4.52071 6.21431 6.12334
H 5.617 6.22529 7.74125
H 5.3207 4.55864 6.78844
N 6.67008 6.02745 5.69759
8
 Atoms. Timestep: 540
B 5.46641 5.74315 6.72515
H 6.40932 5.67513 4.75542
H 7.63463 5.60723 5.93148
H 6.73228 7.0922 5.56753
H 4.40617 6.20707 6.10042
H 5.84874 6.38401 7.76163
H 5.41613 4.52255 6.85515
N 6.67984 6.03378 5.64894
8
 Atoms. Timestep: 560
B 5.47012 5.71566 6.78932
H 6.44799 5.59457 4.72203
H 7.671 5.75636 5.88526
H 6.7235 7.09369 5.42575
H 4.42623 6.21874 6.30133
H 5.87711 6.44283 7.70851
H 5.52357 4.52781 6.97059
N 6.66111 6.04457 5.59645
8
 Atoms. Timestep: 580
B 5.51217 5.73556 6.8358
H 6.51152 5.52022 4.70529
H 7.62235 5.79197 5.91346
H 6.64154 7.07858 5.25426
H 4.48491 6.02377 6.43805
H 5.8616 6.33121 7.78082
H 5.56603 4.54459 7.05798
N 6.62735 6.05376 5.55085
8
 Atoms. Timestep: 600
B 5.56084 5.7371 6.85599
H 6.37419 5.40199 4.80244
H 7.59658 5.91224 5.92639
H 6.51904 7.05598 5.19135
H 4.42601 5.98156 6.43559
H 6.0123 6.42523 7.77332
H 5.76579 4.50823 6.98878
N 6.58938 6.05294 5.53756
8
 Atoms. Timestep: 620
B 5.63487 5.72112 6.83915
H 6.36194 5.36237 4.84033
H 7.6175 5.96759 5.70348
H 6.37047 6.99375 5.07917
H 4.39945 6.02484 6.52576
H 6.05172 6.5425 7.71696
H 5.8806 4.54395 7.07952
N 6.53314 6.05457 5.56288
8
 Atoms. Timestep: 640
B 5.70648 5.74225 6.85745
H 6.29406 5.35628 4.82088
H 7.56458 6.11507 5.70578
H 6.18156 6.98903 5.15112
H 4.54493 5.85799 6.55825
H 6.03797 6.50125 7.72301
H 5.87167 4.62828 7.21868
N 6.49125 6.03735 5.53216
8
 Atoms. Timestep: 660
B 5.71864 5.73868 6.92851
H 6.31635 5.34207 4.7807
H 7.54319 6.14231 5.58786
H 6.06349 6.9697 5.16576
H 4.59748 5.8002 6.61008
H 6.11128 6.61117 7.64863
H 6.07915 4.59033 7.24389
N 6.46643 6.03954 5.4874
8
 Atoms. Timestep: 680
B 5.74308 5.71346 6.97618
H 6.25477 5.33661 4.77463
H 7.51919 6.19253 5.47336
H 6.08366 6.93526 4.98041
H 4.46914 5.74466 6.81854
H 6.13328 6.72545 7.62002
H 6.295 4.63484 7.32823
N 6.44442 6.05089 5.45361
8
 Atoms. Timestep: 700
B 5.79989 5.73552 7.00385
H 6.22685 5.25433 4.84441
H 7.46962 6.12688 5.53979
H 6.00388 6.9411 5.00195
H 4.55279 5.50538 6.91268
H 6.10388 6.6999 7.71252
H 6.34762 4.7392 7.36051
N 6.4042 6.05548 5.40536
8
 Atoms. Timestep: 720
B 5.84843 5.74686 7.02386
H 6.14771 5.28807 4.79798
H 7.42275 6.20053 5.41932
H 5.95264 6.88861 4.9501
H 4.73467 5.47779 6.84043
H 6.06994 6.73802 7.62772
H 6.54315 4.81218 7.28191
N 6.35488 6.03685 5.42238
8
 Atoms. Timestep: 740
B 5.90634 5.74616 6.97943
H 6.10081 5.24901 4.87741
H 7.35794 6.20286 5.24973
H 5.79484 6.86586 5.06509
H 4.73116 5.43706 6.95321
H 6.05436 6.83295 7.53423
H 6.7288 4.85488 7.39377
N 6.31757 6.03471 5.44551
8
 Atoms. Timestep: 760
B 5.98138 5.76639 6.95006
H 6.01055 5.23952 4.90213
H 7.28802 6.30603 5.27762
H 5.65159 6.80686 5.15605
H 4.7886 5.28026 7.06911
H 6.08131 6.88148 7.53044
H 6.74485 4.93899 7.48491
N 6.27417 6.01836 5.4434
8
 Atoms. Timestep: 780
B 6.02912 5.77277 7.02903
H 6.11685 5.24129 4.8154
H 7.19746 6.34164 5.17772
H 5.60395 6.76787 5.05953
H 4.9049 5.29147 7.01767
H 6.10324 6.88683 7.49024
H 6.91325 5.05465 7.29205
N 6.21772 6.00411 5.42302
8
 Atoms. Timestep: 800
B 6.06053 5.76846 7.07046
H 6.07861 5.15366 4.9358
H 7.14037 6.42774 5.18113
H 5.45229 6.63676 4.9789
H 5.02959 5.2607 7.29948
H 6.13131 6.86486 7.54537
H 7.06092 5.09 7.2801
N 6.18968 6.01814 5.36476
8
 Atoms. Timestep: 820
B 6.11026 5.78414 7.08613
H 6.17382 5.12096 4.97543
H 7.0405 6.48359 5.04777
H 5.35962 6.56819 4.95658
H 5.11407 5.12675 7.43195
H 6.20136 6.92174 7.58175
H 7.15469 5.06532 7.34475
N 6.14053 6.01656 5.34429
8
 Atoms. Timestep: 840
B 6.189 5.80141 7.10983
H 6.1441 5.15799 4.87277
H 6.88556 6.59494 4.99774
H 5.22685 6.40788 5.00059
H 5.09779 5.16012 7.21345
H 6.1875 6.97029 7.50889
H 7.22799 5.18738 7.18073
N 6.09937 5.98952 5.36629
8
 Atoms. Timestep: 860
B 6.24207 5.81697 7.04453
H 6.19583 5.13407 4.92777
H 6.72079 6.69206 4.98683
H 5.10628 6.33693 5.27577
H 5.26693 5.19128 7.39808
H 6.18401 6.92012 7.49886
H 7.25281 5.29027 7.24575
N 6.06152 5.97137 5.37675
8
 Atoms. Timestep: 880
B 6.28121 5.83395 6.97262
H 6.15822 5.15187 4.93505
H 6.56243 6.7182 4.93018
H 5.01805 6.16188 5.2801
H 5.48658 5.13132 7.49707
H 6.22547 6.98426 7.38759
H 7.40585 5.32251 7.25156
N 6.02204 5.96503 5.4359
8
 Atoms. Timestep: 900
B 6.36083 5.86667 6.98795
H 6.22011 5.14413 4.96868
H 6.47092 6.73465 5.00385
H 4.95251 6.12948 5.25859
H 5.48505 5.04593 7.4038
H 6.22439 7.05648 7.3703
H 7.59891 5.4816 6.87379
N 5.95382 5.93106 5.45283
8
 Atoms. Timestep: 920
B 6.43533 5.89618 6.99615
H 6.15613 5.09934 4.9927
H 6.39207 6.72617 4.95798
H 4.8607 6.00455 5.32024
H 5.82775 4.99299 7.63382
H 6.25392 6.95698 7.55285
H 7.56921 5.64505 6.87951
N 5.88863 5.92024 5.41378
8
 Atoms. Timestep: 940
B 6.50278 5.90364 7.01908
H 6.0627 5.09453 4.95438
H 6.1473 6.67137 4.74989
H 4.79836 5.99469 5.37098
H 6.12472 4.95852 7.59745
H 6.18984 6.97168 7.46344
H 7.67955 5.79076 6.87297
N 5.84069 5.91045 5.41952
8
 Atoms. Timestep: 960
B 6.58407 5.93172 7.01212
H 5.97084 5.04452 4.98433
H 6.10456 6.69497 4.83349
H 4.76901 5.92069 5.63666
H 6.11398 4.89401 7.4204
H 6.04618 6.97903 7.41421
H 7.84514 6.03985 6.67499
N 5.7889 5.88225 5.42811
8
 Atoms. Timestep: 980
B 6.6239 5.97835 6.93184
H 5.89244 5.04825 4.92977
H 5.93819 6.69696 4.84034
H 4.74531 5.92648 5.72486
H 6.38932 4.86373 7.52313
H 6.10198 6.86824 7.62028
H 7.85209 6.15195 6.70711
N 5.7532 5.84753 5.46279
8
 Atoms. Timestep: 1000
B 6.6472 5.98043 6.8706
H 5.90162 5.03879 5.00102
H 5.84516 6.65327 4.8393
H 4.69633 5.78987 5.74081
H 6.72582 4.91651 7.4458
H 6.13862 6.85701 7.50888
H 7.6942 6.26834 6.51879
N 5.72934 5.84819 5.53081
8
 Atoms. Timestep: 1020
B 6.68299 5.99804 6.81276
H 6.02648 5.0303 5.11529
H 5.80492 6.69038 4.97298
H 4.67687 5.71199 5.84229
H 6.75974 4.91115 7.28051
H 6.13583 6.86835 7.47183
H 7.6839 6.45206 6.20245
N 5.69558 5.82457 5.58752
8
 Atoms. Timestep: 1040
B 6.71532 6.05257 6.76271
H 5.91836 5.07112 4.98098
H 5.57394 6.65339 4.96996
H 4.65944 5.57017 5.90978
H 6.92615 4.94147 7.29873
H 6.29597 6.81221 7.66477
H 7.83228 6.47858 6.1886
N 5.66219 5.79232 5.61702
8
 Atoms. Timestep: 1060
B 6.7956 6.07088 6.76491
H 5.88201 5.0577 4.97505
H 5.29315 6.65002 5.06704
H 4.75391 5.42395 6.1361
H 7.06964 4.95902 7.24983
H 6.28683 6.8671 7.54055
H 7.72467 6.51941 6.18119
N 5.61425 5.78174 5.60555
8
 Atoms. Timestep: 1080
B 6.8641 6.09337 6.74685
H 5.87864 5.13336 4.91659
H 5.16563 6.62958 5.1456
H 4.82993 5.30049 6.23596
H 7.05481 5.00252 7.19886
H 6.27199 6.86277 7.44084
H 7.67567 6.59537 6.09657
N 5.57095 5.76105 5.62771
8
 Atoms. Timestep: 1100
B 6.86519 6.12862 6.69951
H 5.79149 5.17714 4.85922
H 5.06965 6.62444 5.30079
H 4.77307 5.17875 6.13328
H 7.1777 5.06196 7.20337
H 6.416 6.86937 7.5906
H 7.81503 6.62899 5.96726
N 5.55823 5.73267 5.6628
8
 Atoms. Timestep: 1120
B 6.85328 6.12943 6.65862
H 5.88201 5.28773 4.86316
H 5.06632 6.63543 5.41268
H 4.85105 5.10047 6.21822
H 7.32026 5.07272 7.09782
H 6.4722 6.94946 7.50945
H 7.67427 6.65745 5.81269
N 5.55148 5.72043 5.70438
8
 Atoms. Timestep: 1140
B 6.85573 6.13094 6.5895
H 5.8649 5.27208 4.91605
H 4.95328 6.57438 5.49356
H 4.91792 5.01851 6.22357
H 7.32916 5.09896 7.02382
H 6.43412 6.90176 7.4
H 7.46222 6.67841 5.79096
N 5.57134 5.73063 5.76242
8
 Atoms. Timestep: 1160
B 6.85362 6.16238 6.53744
H 5.74932 5.28385 4.89296
H 4.91189 6.53312 5.55292
H 4.9705 5.02284 6.3709
H 7.39319 5.14943 6.95067
H 6.51039 6.81964 7.50958
H 7.58511 6.76782 5.75228
N 5.56162 5.70405 5.78963
8
 Atoms. Timestep: 1180
B 6.90362 6.19081 6.53482
H 5.65644 5.16736 4.93742
H 4.86159 6.51795 5.64888
H 5.05821 5.01323 6.48531
H 7.49544 5.13864 6.77888
H 6.52895 6.82777 7.54997
H 7.60314 6.9192 5.67736
N 5.5171 5.68159 5.78818
8
 Atoms. Timestep: 1200
B 6.97405 6.21026 6.5127
H 5.58997 5.16591 4.95248
H 4.75613 6.41672 5.57587
H 5.00216 5.01472 6.5074
H 7.59524 5.18391 6.69097
H 6.55278 6.76918 7.49864
H 7.35511 6.99742 5.68522
N 5.48793 5.66918 5.81719
8
 Atoms. Timestep: 1220
B 6.9793 6.2448 6.46957
H 5.66311 5.12869 5.01442
H 4.83541 6.48459 5.63914
H 4.95429 4.98121 6.50728
H 7.72094 5.28343 6.57399
H 6.7175 6.67758 7.55524
H 7.32158 6.99614 5.67734
N 5.45807 5.64226 5.8464
8
 Atoms. Timestep: 1240
B 6.96955 6.25494 6.44459
H 5.61568 5.15201 5.01502
H 4.84788 6.46547 5.65189
H 4.93465 5.00644 6.56325
H 7.73106 5.28704 6.33229
H 6.7988 6.70852 7.59256
H 7.27305 7.14246 5.56243
N 5.46643 5.61942 5.88353
8
 Atoms. Timestep: 1260
B 6.95865 6.24333 6.38723
H 5.54671 5.07534 5.09634
H 4.75251 6.38332 5.72942
H 5.04066 4.97525 6.6203
H 7.72638 5.31169 6.25454
H 6.7785 6.64911 7.54294
H 7.05922 7.24547 5.57141
N 5.49606 5.63707 5.92081
8
 Atoms. Timestep: 1280
B 6.90091 6.25456 6.31326
H 5.55924 5.11565 5.11485
H 4.75433 6.37105 5.8563
H 5.26918 5.01224 6.7778
H 7.77111 5.43249 6.19563
H 6.82416 6.51467 7.4759
H 7.12781 7.1614 5.63342
N 5.5119 5.63074 5.96081
8
 Atoms. Timestep: 1300
B 6.91063 6.29019 6.27746
H 5.42091 5.09776 5.1496
H 4.71784 6.31069 6.02489
H 5.28915 4.90356 6.74613
H 7.71447 5.36785 6.02049
H 6.87516 6.59433 7.47135
H 7.09844 7.23268 5.5643
N 5.51796 5.61045 5.99394
8
 Atoms. Timestep: 1320
B 6.9796 6.31344 6.24881
H 5.3873 5.22124 5.11095
H 4.66295 6.23759 6.16694
H 5.33595 4.79044 6.71374
H 7.76237 5.40106 5.96046
H 6.99335 6.71459 7.43987
H 6.86326 7.31191 5.39859
N 5.47267 5.58037 6.02934
8
 Atoms. Timestep: 1340
B 6.99996 6.34707 6.19935
H 5.38413 5.33645 5.12151
H 4.66822 6.20916 6.34948
H 5.37787 4.66082 6.62401
H 7.86962 5.59414 5.92655
H 7.12903 6.72711 7.3286
H 6.90117 7.22221 5.32231
N 5.43376 5.54921 6.07593
8
 Atoms. Timestep: 1360
B 7.02112 6.39491 6.14651
H 5.16482 5.39608 5.18111
H 4.67427 6.09982 6.54
H 5.37235 4.58987 6.57367
H 7.78493 5.50329 5.81493
H 7.07007 6.80291 7.263
H 6.8846 7.203 5.35472
N 5.44451 5.52336 6.11276
8
 Atoms. Timestep: 1380
B 7.0073 6.40436 6.09759
H 5.02828 5.40568 5.26481
H 4.80256 6.03676 6.77591
H 5.60594 4.57843 6.55559
H 7.75921 5.43488 5.78033
H 7.0922 6.83078 7.27448
H 6.77951 7.2929 5.26486
N 5.44683 5.51719 6.13703
8
 Atoms. Timestep: 1400
B 6.94739 6.38391 6.04779
H 4.94496 5.42204 5.36692
H 4.85445 5.93296 6.92639
H 5.80207 4.60197 6.49547
H 7.8535 5.64012 5.71645
H 7.19908 6.76703 7.20286
H 6.79473 7.31633 5.15421
N 5.46583 5.52575 6.17928
8
 Atoms. Timestep: 1420
B 6.89396 6.38581 5.99219
H 4.95156 5.47914 5.45028
H 4.92165 5.85021 7.01262
H 5.72542 4.54037 6.46488
H 7.65919 5.60082 5.56114
H 7.12446 6.78745 7.07751
H 6.65243 7.28894 5.23372
N 5.53663 5.53381 6.22662
8
 Atoms. Timestep: 1440
B 6.83549 6.39394 5.9527
H 5.00898 5.57879 5.48324
H 5.06532 5.95771 7.05893
H 5.7667 4.52047 6.46499
H 7.57804 5.57001 5.35717
H 7.29149 6.83167 7.01116
H 6.41545 7.24463 5.26761
N 5.57521 5.51638 6.2683
8
 Atoms. Timestep: 1460
B 6.82899 6.40044 5.89907
H 4.93712 5.4604 5.57792
H 5.05044 5.88311 7.13381
H 5.79913 4.52302 6.58554
H 7.6353 5.82189 5.10703
H 7.51405 6.75937 6.90525
H 6.27311 7.35628 5.23792
N 5.57428 5.50417 6.3165
8
 Atoms. Timestep: 1480
B 6.8581 6.4552 5.8056
H 4.88949 5.27333 5.69325
H 5.07089 5.90945 7.16663
H 5.91789 4.53689 6.68836
H 7.36364 5.80011 4.95178
H 7.42914 6.63324 6.85644
H 6.28989 7.53117 5.45045
N 5.56956 5.47049 6.37007
8
 Atoms. Timestep: 1500
B 6.83687 6.5083 5.75268
H 4.8875 5.15686 5.76577
H 5.14303 5.96671 7.19387
H 6.08277 4.63131 6.81572
H 7.1825 5.83853 4.83987
H 7.59862 6.48798 6.67227
H 6.3419 7.53492 5.52925
N 5.56626 5.43436 6.4102
8
 Atoms. Timestep: 1520
B 6.8097 6.50959 5.71487
H 4.91343 5.02874 5.86794
H 5.04335 5.8928 7.22863
H 6.08681 4.6227 6.87557
H 7.11065 6.01612 4.57257
H 7.8279 6.44011 6.44758
H 6.26691 7.5735 5.57692
N 5.58632 5.4364 6.45704
8
 Atoms. Timestep: 1540
B 6.7883 6.50089 5.64499
H 5.01788 5.0795 5.81416
H 5.05109 5.91424 7.23452
H 6.11594 4.6402 6.97412
H 6.79072 6.05567 4.46982
H 7.79665 6.44301 6.38377
H 6.16857 7.60403 5.82088
N 5.62484 5.43149 6.5018
8
 Atoms. Timestep: 1560
B 6.72351 6.51252 5.62514
H 5.06177 5.06869 5.84944
H 5.13074 6.02566 7.19692
H 6.12389 4.61233 7.00956
H 6.60862 6.09193 4.55342
H 7.79376 6.35734 6.0988
H 6.22078 7.62108 5.81517
N 5.67491 5.41963 6.52954
8
 Atoms. Timestep: 1580
B 6.66301 6.50145 5.62346
H 4.99948 4.99336 6.0122
H 5.19274 5.94619 7.30474
H 6.21477 4.68159 7.07652
H 6.48234 6.16247 4.46327
H 7.8302 6.32721 5.85712
H 6.26031 7.5921 5.79831
N 5.71871 5.43347 6.53163
8
 Atoms. Timestep: 1600
B 6.59684 6.45649 5.58842
H 5.06882 4.92903 6.08025
H 5.31317 5.97523 7.37067
H 6.46532 4.76915 6.90771
H 6.24332 6.20724 4.36733
H 7.82286 6.26818 5.91784
H 6.23751 7.57386 5.97168
N 5.75753 5.46673 6.55128
8
 Atoms. Timestep: 1620
B 6.52994 6.46221 5.55823
H 5.04932 4.95613 6.17008
H 5.43167 5.95668 7.44448
H 6.53545 4.78437 6.92361
H 6.17166 6.20856 4.42402
H 7.71561 6.18333 5.741
H 6.26538 7.63156 5.9484
N 5.80784 5.46247 6.572
8
 Atoms. Timestep: 1640
B 6.50823 6.49648 5.52036
H 5.01448 4.97172 6.28448
H 5.52786 5.95822 7.49716
H 6.46611 4.64461 6.94694
H 6.03455 6.20355 4.5026
H 7.65201 6.28476 5.43868
H 6.24608 7.63577 5.8048
N 5.84088 5.43761 6.61385
8
 Atoms. Timestep: 1660
B 6.48812 6.51073 5.44543
H 5.00665 5.09709 6.27853
H 5.68441 5.94363 7.59037
H 6.53006 4.62129 6.86704
H 5.75461 6.16827 4.46743
H 7.72661 6.36057 5.36263
H 6.14447 7.56466 5.90612
N 5.86312 5.42255 6.67183
8
 Atoms. Timestep: 1680
B 6.43274 6.53207 5.38695
H 4.98289 5.1059 6.47241
H 5.82781 5.87651 7.68772
H 6.49533 4.53608 6.78932
H 5.74379 6.1732 4.36498
H 7.68457 6.3081 5.31682
H 6.11791 7.60302 5.91386
N 5.90545 5.41699 6.71173
8
 Atoms. Timestep: 1700
B 6.38174 6.54317 5.37174
H 4.96399 5.12557 6.72538
H 6.13425 5.86634 7.68701
H 6.52993 4.52542 6.71966
H 5.78689 6.16765 4.44276
H 7.5304 6.3134 5.24118
H 6.13319 7.69513 5.70945
N 5.92863 5.40196 6.72487
8
 Atoms. Timestep: 1720
B 6.33982 6.52034 5.36653
H 5.00182 5.1915 6.89981
H 6.39765 5.89411 7.59976
H 6.51101 4.54893 6.48732
H 5.63308 6.07005 4.53444
H 7.50767 6.33821 5.27119
H 6.03528 7.63433 5.74366
N 5.96041 5.42074 6.72813
8
 Atoms. Timestep: 1740
B 6.26886 6.4769 5.39023
H 5.06502 5.34421 7.00089
H 6.59458 5.73396 7.60682
H 6.37492 4.50396 6.43465
H 5.53416 5.98498 4.43641
H 7.5356 6.37155 5.19715
H 5.90098 7.54883 5.83788
N 6.02095 5.46779 6.71144
8
 Atoms. Timestep: 1760
B 6.19865 6.42471 5.45343
H 5.15456 5.61557 7.03853
H 6.76498 5.72494 7.50002
H 6.1936 4.44764 6.47025
H 5.5409 5.9516 4.49842
H 7.38085 6.48415 5.06531
H 5.80108 7.53875 5.74164
N 6.0872 5.4884 6.67695
8
 Atoms. Timestep: 1780
B 6.1655 6.41721 5.42184
H 5.28164 5.7029 7.19576
H 6.96924 5.71412 7.32027
H 6.1155 4.45901 6.46044
H 5.426 5.86287 4.72637
H 7.27802 6.52038 5.09332
H 5.67234 7.48134 5.80104
N 6.11943 5.49576 6.68109
8
 Atoms. Timestep: 1800
B 6.10229 6.43737 5.36077
H 5.43194 5.62412 7.41753
H 7.08529 5.58031 7.27703
H 6.13519 4.46543 6.46815
H 5.32287 5.85743 4.57722
H 7.26444 6.49694 4.96232
H 5.65848 7.49249 5.80581
N 6.15709 5.4962 6.73457
8
 Atoms. Timestep: 1820
B 6.02866 6.46434 5.33459
H 5.50838 5.64915 7.4721
H 7.17741 5.63742 7.20477
H 6.10818 4.46752 6.46462
H 5.25136 5.87607 4.494
H 7.20641 6.44147 4.83465
H 5.70996 7.58871 5.64408
N 6.20936 5.46514 6.7829
8
 Atoms. Timestep: 1840
B 5.99706 6.48433 5.28105
H 5.58571 5.68189 7.50865
H 7.23035 5.64209 7.15131
H 6.19177 4.43194 6.57947
H 5.0965 5.84823 4.81523
H 7.11286 6.38149 4.84189
H 5.6738 7.56541 5.70257
N 6.23879 5.45752 6.78957
8
 Atoms. Timestep: 1860
B 5.96478 6.44917 5.29195
H 5.64267 5.68325 7.52398
H 7.24581 5.67625 7.18076
H 6.19583 4.44627 6.62966
H 5.01702 5.91028 4.85851
H 6.94635 6.38737 4.64036
H 5.70738 7.53327 5.81695
N 6.2734 5.47853 6.77751
8
 Atoms. Timestep: 1880
B 5.91942 6.40155 5.35719
H 5.61622 5.77273 7.41307
H 7.28887 5.71613 7.12444
H 6.25796 4.48417 6.55843
H 4.88278 5.93917 4.81245
H 6.8423 6.33908 4.52273
H 5.82575 7.55949 5.79782
N 6.31133 5.50283 6.75727
8
 Atoms. Timestep: 1900
B 5.90071 6.37427 5.4088
H 5.69711 5.70731 7.44893
H 7.27958 5.8172 7.07765
H 6.30856 4.50597 6.57863
H 4.75241 5.9005 5.147
H 6.8572 6.12856 4.62471
H 5.83157 7.52545 5.76372
N 6.32487 5.54 6.68805
8
 Atoms. Timestep: 1920
B 5.88149 6.33625 5.44681
H 5.75717 5.6497 7.48307
H 7.31378 5.86309 6.94475
H 6.44839 4.5604 6.45215
H 4.78825 5.9419 5.22494
H 6.61237 6.04651 4.54162
H 5.88301 7.51481 5.70608
N 6.33423 5.56994 6.67931
8
 Atoms. Timestep: 1940
B 5.81098 6.34099 5.41204
H 5.79918 5.61627 7.50252
H 7.32846 5.93696 6.99426
H 6.44916 4.56069 6.44313
H 4.66818 6.00719 5.20217
H 6.48412 6.00831 4.46275
H 5.97491 7.5552 5.65789
N 6.39569 5.55855 6.71255
8
 Atoms. Timestep: 1960
B 5.75291 6.37596 5.35522
H 5.84869 5.6356 7.5224
H 7.37738 5.89139 7.01623
H 6.60939 4.5231 6.61846
H 4.52923 6.04304 5.42191
H 6.49108 5.91801 4.45441
H 5.9384 7.56597 5.62933
N 6.43405 5.53926 6.72781
8
 Atoms. Timestep: 1980
B 5.72334 6.38595 5.33847
H 5.88619 5.68097 7.53591
H 7.37934 6.00033 6.9305
H 6.57176 4.51253 6.59998
H 4.55369 6.02941 5.45706
H 6.25887 5.93604 4.32823
H 5.91582 7.53108 5.57443
N 6.47318 5.52346 6.75763
8
 Atoms. Timestep: 2000
B 5.686 6.35909 5.34925
H 5.95417 5.67885 7.56813
H 7.46189 5.90669 6.90437
H 6.60124 4.54123 6.57675
H 4.55597 6.05361 5.45604
H 6.16543 5.94758 4.34191
H 5.96192 7.51403 5.5736
N 6.49235 5.54764 6.7497
8
 Atoms. Timestep: 2020
B 5.66795 6.33205 5.3875
H 6.05152 5.69888 7.57914
H 7.47887 5.91175 6.86564
H 6.53644 4.55142 6.57352
H 4.48969 6.0658 5.58531
H 6.26798 5.81904 4.45547
H 5.92414 7.55556 5.57851
N 6.50284 5.57132 6.7047
8
 Atoms. Timestep: 2040
B 5.69344 6.30604 5.46748
H 6.08115 5.79876 7.54723
H 7.4875 5.92107 6.63533
H 6.5134 4.58337 6.50663
H 4.48449 5.95746 5.61176
H 6.16023 5.77213 4.43021
H 5.8559 7.52466 5.49342
N 6.49503 5.5946 6.6725
8
 Atoms. Timestep: 2060
B 5.68951 6.26052 5.50948
H 6.23182 5.85386 7.55889
H 7.50785 5.88807 6.60197
H 6.45497 4.59824 6.59419
H 4.53876 5.92121 5.67457
H 6.0687 5.84829 4.43641
H 5.85817 7.42473 5.57247
N 6.49252 5.63136 6.62483
8
 Atoms. Timestep: 2080
B 5.61915 6.26042 5.47971
H 6.24452 6.01183 7.49954
H 7.56111 5.80745 6.48976
H 6.44554 4.59136 6.68721
H 4.50422 5.94608 5.76508
H 6.11663 5.83243 4.46579
H 5.78899 7.47738 5.68054
N 6.54675 5.62201 6.63711
8
 Atoms. Timestep: 2100
B 5.56619 6.28577 5.4587
H 6.42227 6.08295 7.51688
H 7.5959 5.79268 6.42602
H 6.45551 4.58553 6.83387
H 4.42192 5.85449 5.72525
H 5.96341 5.85835 4.35827
H 5.67185 7.5514 5.56573
N 6.5969 5.59824 6.66489
8
 Atoms. Timestep: 2120
B 5.5053 6.29284 5.43328
H 6.60699 6.06408 7.56754
H 7.62728 5.6437 6.33612
H 6.47102 4.6021 6.86951
H 4.42152 5.79466 5.77814
H 5.89769 5.8674 4.35622
H 5.64812 7.46852 5.56622
N 6.63375 5.61314 6.68109
8
 Atoms. Timestep: 2140
B 5.45228 6.27554 5.43655
H 6.70381 6.13664 7.51957
H 7.62929 5.62412 6.23132
H 6.33891 4.65619 6.8282
H 4.43141 5.85538 5.86793
H 5.95825 5.80096 4.47118
H 5.58051 7.4179 5.61961
N 6.67682 5.62286 6.67399
8
 Atoms. Timestep: 2160
B 5.45659 6.2507 5.5088
H 6.77022 6.1807 7.4619
H 7.64162 5.54807 6.17915
H 6.41162 4.68531 6.93374
H 4.40144 5.77599 5.8676
H 5.80927 5.74425 4.43432
H 5.51108 7.52738 5.49671
N 6.68041 5.64413 6.63
8
 Atoms. Timestep: 2180
B 5.48375 6.20473 5.57377
H 6.82923 6.29621 7.33404
H 7.60607 5.60347 6.07594
H 6.47223 4.72712 6.98791
H 4.42901 5.73777 6.07198
H 5.66672 5.72307 4.44007
H 5.55913 7.48769 5.53251
N 6.65824 5.67147 6.57495
8
 Atoms. Timestep: 2200
B 5.48714 6.14688 5.63683
H 6.76788 6.38621 7.2351
H 7.55608 5.64224 5.93016
H 6.47352 4.78318 6.96658
H 4.48247 5.90326 6.2833
H 5.64545 5.6337 4.56661
H 5.62037 7.29622 5.6755
N 6.65681 5.71114 6.51095
8
 Atoms. Timestep: 2220
B 5.42563 6.14274 5.67793
H 6.88495 6.36289 7.2394
H 7.62179 5.71341 5.92598
H 6.67196 4.75424 6.94185
H 4.44452 5.8951 6.31979
H 5.402 5.50653 4.64036
H 5.56727 7.3477 5.43039
N 6.70092 5.71898 6.49064
8
 Atoms. Timestep: 2240
B 5.32496 6.15268 5.66946
H 6.96667 6.29924 7.30354
H 7.59136 5.8316 5.79931
H 6.73278 4.71283 6.84437
H 4.45282 5.95372 6.5252
H 5.22555 5.29763 4.75585
H 5.49147 7.36222 5.18021
N 6.788 5.72006 6.50356
8
 Atoms. Timestep: 2260
B 5.22915 6.12756 5.66812
H 7.03457 6.2552 7.3267
H 7.65568 5.88855 5.78797
H 6.81665 4.69754 6.68156
H 4.53095 6.24658 6.67063
H 5.16893 5.1562 4.94824
H 5.45436 7.22395 5.2097
N 6.84759 5.73867 6.48914
8
 Atoms. Timestep: 2280
B 5.19861 6.11731 5.72448
H 7.05187 6.20762 7.32598
H 7.72633 6.01128 5.81717
H 6.94416 4.7221 6.68523
H 4.46782 6.28689 6.67162
H 4.92716 5.1263 5.10903
H 5.42144 7.017 5.05465
N 6.87989 5.7535 6.44288
8
 Atoms. Timestep: 2300
B 5.21019 6.09207 5.78229
H 6.94068 6.28719 7.26073
H 7.62187 6.12552 5.70557
H 7.06149 4.73259 6.55322
H 4.57402 6.38388 6.78896
H 4.81548 5.02276 5.30577
H 5.39294 6.96412 4.88076
N 6.88041 5.76262 6.41034
8
 Atoms. Timestep: 2320
B 5.23524 6.04036 5.83474
H 6.9975 6.25557 7.23327
H 7.51494 6.2465 5.63362
H 7.1194 4.78543 6.53969
H 4.81441 6.60549 6.8323
H 4.84932 4.90954 5.53266
H 5.3465 6.95403 4.91039
N 6.84425 5.78533 6.35652
8
 Atoms. Timestep: 2340
B 5.29696 6.01752 5.91499
H 7.04935 6.26585 7.17595
H 7.51999 6.2096 5.57336
H 7.11408 4.80919 6.35457
H 4.71076 6.58428 6.82573
H 4.74428 4.96761 5.72236
H 5.29298 6.62432 4.90914
N 6.81168 5.82408 6.30324
8
 Atoms. Timestep: 2360
B 5.29102 6.00674 5.9653
H 7.12203 6.22978 7.13877
H 7.38959 6.32124 5.47558
H 7.00635 4.80941 6.33363
H 4.73716 6.6458 6.85187
H 4.84054 4.86292 5.94594
H 5.19949 6.46508 4.87271
N 6.826 5.84143 6.26033
8
 Atoms. Timestep: 2380
B 5.207 5.97437 6.00029
H 7.20864 6.25478 7.0937
H 7.4389 6.29487 5.4336
H 7.19178 4.85837 6.17499
H 4.90165 6.81229 6.84123
H 4.89485 4.79395 6.19902
H 5.0435 6.46369 4.80108
N 6.86338 5.85614 6.23869
8
 Atoms. Timestep: 2400
B 5.15861 5.95469 6.04855
H 7.192 6.24764 7.07487
H 7.40707 6.47545 5.44878
H 7.28124 4.87861 6.19765
H 4.8611 6.83557 6.82679
H 4.62597 4.91584 6.38532
H 4.92636 6.22023 4.84789
N 6.92825 5.86451 6.18448
8
 Atoms. Timestep: 2420
B 5.10716 5.94888 6.08963
H 7.14736 6.24395 7.06024
H 7.35298 6.49535 5.38326
H 7.38917 4.9374 6.00538
H 4.8942 6.94368 6.75611
H 4.72135 4.90979 6.5731
H 4.94478 6.02268 4.96121
N 6.95679 5.87045 6.15579
8
 Atoms. Timestep: 2440
B 5.09425 5.92876 6.12427
H 7.36099 6.16891 6.99898
H 7.29355 6.61263 5.42661
H 7.38193 4.9594 5.94977
H 4.94701 7.0425 6.63628
H 4.93682 4.92489 6.80952
H 4.84406 5.90774 4.92623
N 6.94428 5.88146 6.1285
8
 Atoms. Timestep: 2460
B 5.16058 5.91117 6.16657
H 7.35445 6.09189 6.99202
H 7.27236 6.60401 5.36622
H 7.22102 4.99557 5.72091
H 4.85151 7.02368 6.57386
H 4.8405 5.04688 6.98698
H 4.70549 5.64691 4.97913
N 6.93019 5.90983 6.10503
8
 Atoms. Timestep: 2480
B 5.22929 5.90157 6.22068
H 7.32394 6.00132 6.94246
H 7.23743 6.72443 5.45654
H 7.13844 4.9996 5.69431
H 4.88273 7.02904 6.4366
H 4.95426 5.12635 7.10333
H 4.90491 5.45071 5.1307
N 6.86315 5.92277 6.05294
8
 Atoms. Timestep: 2500
B 5.29711 5.88638 6.2434
H 7.30798 6.00487 6.89788
H 7.13342 6.72446 5.41765
H 7.18911 5.10908 5.53586
H 4.91822 7.0497 6.32021
H 5.18537 5.20986 7.25493
H 4.87289 5.39182 5.26792
N 6.79903 5.92317 6.04038
8
 Atoms. Timestep: 2520
B 5.28314 5.86248 6.27105
H 7.35163 6.0577 6.84889
H 6.99835 6.79668 5.41248
H 7.19137 5.08252 5.54001
H 4.90082 7.04795 6.39506
H 5.1079 5.31645 7.37523
H 4.63521 5.25284 5.38043
N 6.83993 5.93702 6.00064
8
 Atoms. Timestep: 2540
B 5.19037 5.8525 6.35076
H 7.40987 6.13293 6.78405
H 7.10337 6.7253 5.26925
H 7.2938 5.11581 5.50582
H 4.90291 7.02748 6.37431
H 5.11896 5.2878 7.43068
H 4.7167 5.17356 5.38106
N 6.88576 5.95123 5.95393
8
 Atoms. Timestep: 2560
B 5.14027 5.84305 6.39752
H 7.48291 6.22551 6.69804
H 7.06545 6.69847 5.18414
H 7.27168 5.05282 5.58364
H 4.77412 6.97553 6.37871
H 5.23906 5.26424 7.43502
H 4.75385 5.22481 5.46599
N 6.92145 5.96006 5.91783
8
 Atoms. Timestep: 2580
B 5.14149 5.82929 6.40735
H 7.52974 6.31001 6.63019
H 6.99303 6.57856 5.03697
H 7.18898 5.03045 5.627
H 4.69727 6.97786 6.52769
H 5.25564 5.26202 7.49128
H 4.64913 5.16394 5.5624
N 6.94003 5.97914 5.90096
8
 Atoms. Timestep: 2600
B 5.17247 5.8195 6.4423
H 7.53968 6.4098 6.51912
H 7.0273 6.52008 4.97691
H 7.24652 5.0408 5.72293