8
Lattice="12.0 0.0 0.0 0.0 12.0 0.0 0.0 0.0 12.0" Properties=species:S:1:pos:R:3:momenta:R:3:forces:R:3:magmoms:R:1 energy=-35.07621812 stress="0.0022283973587239603 2.4562835014000976e-06 3.612112375669488e-05 2.4562835014000976e-06 0.0026187551144673405 -0.00020016237026344207 3.612112375669488e-05 -0.00020016237026344207 0.0012013778911833689" free_energy=-35.07621812 magmom=0.0 dipole="_JSON [[0.0, 0.0, 0.0]]" nbands=16 pbc="T T T"
B        4.58972343       5.47493915       4.40644205       0.00000000       0.00000000       0.00000000      -0.31009182      -0.18016600      -0.62528745       0.00000000
H        7.97349022       6.90221601       8.62932551       0.00000000       0.00000000       0.00000000      -0.42474619       0.22061145       1.39576781       0.00000000
H        7.15855935       6.16550068       7.40774210       0.00000000       0.00000000       0.00000000      -0.86349674      -0.08411299      -0.23220067       0.00000000
H        8.35836051       7.27894792       7.15811756       0.00000000       0.00000000       0.00000000      -0.08336618      -0.10808862      -0.47404451       0.00000000
H        5.08463116       5.81956687       3.37067449       0.00000000       0.00000000       0.00000000       0.04243016      -0.01014378      -0.15614690       0.00000000
H        3.64163949       4.72105208       4.37229224       0.00000000       0.00000000       0.00000000       0.19998656       0.13223706       0.18214009       0.00000000
H        5.05279078       5.92070248       5.39558165       0.00000000       0.00000000       0.00000000       0.08752571       0.06947142       0.60235808       0.00000000
N        8.05684950       6.48146808       7.72928988       0.00000000       0.00000000       0.00000000       1.35175851      -0.03980853      -0.69258644       0.00000000
8
Lattice="12.0 0.0 0.0 0.0 12.0 0.0 0.0 0.0 12.0" Properties=species:S:1:pos:R:3:momenta:R:3:forces:R:3:magmoms:R:1 energy=-35.01839947 stress="0.002743600588682364 0.0001373775195209739 0.00012693007584797732 0.0001373775195209739 0.0019179670144391613 -0.00032094832325242726 0.00012693007584797732 -0.00032094832325242726 0.002154886287303388" free_energy=-35.01839947 magmom=0.0 dipole="_JSON [[0.0, 0.0, 0.0]]" nbands=16 pbc="T T T"
B        4.02648788       5.18279675       4.95486843       0.00000000       0.00000000       0.00000000      -0.45979448      -0.32312378      -0.36326759       0.00000000
H        9.01625113       7.09656136       7.03591072       0.00000000       0.00000000       0.00000000      -0.33230514       0.29577060      -0.31564830       0.00000000
H        8.84312604       5.79092887       7.84969480       0.00000000       0.00000000       0.00000000      -0.37206957      -0.44892742      -0.38246955       0.00000000
H        7.95464659       6.98236551       8.22169521       0.00000000       0.00000000       0.00000000      -0.69415496       0.80881074       0.59839822       0.00000000
H        2.98374887       4.90343864       5.51345191       0.00000000       0.00000000       0.00000000       0.27746858       0.11582207      -0.07537575       0.00000000
H        4.95687887       5.65270373       5.50185285       0.00000000       0.00000000       0.00000000       0.34805679       0.26609550       0.49645829       0.00000000
H        4.15954419       4.96583400       3.77830479       0.00000000       0.00000000       0.00000000      -0.15707391      -0.04940790      -0.04791739       0.00000000
N        8.23521889       6.49998879       7.37600099       0.00000000       0.00000000       0.00000000       1.38987268      -0.66503983       0.08982207       0.00000000
8
Lattice="12.0 0.0 0.0 0.0 12.0 0.0 0.0 0.0 12.0" Properties=species:S:1:pos:R:3:momenta:R:3:forces:R:3:magmoms:R:1 energy=-34.91157913 stress="0.0005691009955848184 -0.0006754057174168948 4.6686488261606774e-06 -0.0006754057174168948 0.0019143630734472395 0.0002546794121838181 4.6686488261606774e-06 0.0002546794121838181 0.0009415740002789086" free_energy=-34.91157913 magmom=0.0 dipole="_JSON [[0.0, 0.0, 0.0]]" nbands=16 pbc="T T T"
B        3.96697218       5.09636419       5.28761209       0.00000000       0.00000000       0.00000000      -1.64524120      -0.28513215      -1.00946368       0.00000000
H        7.47551668       6.54354664       6.24791280       0.00000000       0.00000000       0.00000000      -1.91899858      -0.05635437      -0.68465784       0.00000000
H        8.87528464       7.19143292       6.15829001       0.00000000       0.00000000       0.00000000       1.12194882       1.30575685      -0.46667406       0.00000000
H        8.36291197       6.52595594       7.53288649       0.00000000       0.00000000       0.00000000       0.22255083       0.19018965       1.33451756       0.00000000
H        4.94906983       5.47582885       4.82334617       0.00000000       0.00000000       0.00000000       1.36089875       0.40231220      -0.00033538       0.00000000
H        3.12471536       4.80856708       4.46711351       0.00000000       0.00000000       0.00000000       0.04381646      -0.12253138      -0.00238943       0.00000000
H        3.58457368       5.02087963       6.38536831       0.00000000       0.00000000       0.00000000       0.24723428       0.00797400       1.02566276       0.00000000
N        8.40812211       6.40748267       6.54251221       0.00000000       0.00000000       0.00000000       0.56779065      -1.44221480      -0.19665993       0.00000000
8
Lattice="12.0 0.0 0.0 0.0 12.0 0.0 0.0 0.0 12.0" Properties=species:S:1:pos:R:3:momenta:R:3:forces:R:3:magmoms:R:1 energy=-35.02865539 stress="0.00369052145265207 0.00046763386150641304 -0.0003869733723179791 0.00046763386150641304 0.002796272946339076 2.4449089751690877e-05 -0.0003869733723179791 2.4449089751690877e-05 0.0027364644403629038" free_energy=-35.02865539 magmom=0.0 dipole="_JSON [[0.0, 0.0, 0.0]]" nbands=16 pbc="T T T"
B        3.90676100       5.01887329       5.32698218       0.00000000       0.00000000       0.00000000       1.40638943       0.10474838       1.23948256       0.00000000
H        7.37395360       6.35041433       6.30644098       0.00000000       0.00000000       0.00000000       0.12465765       0.26916680      -0.34959999       0.00000000
H        8.84989595       7.19095735       6.21725048       0.00000000       0.00000000       0.00000000      -0.45522077      -0.20431695      -0.24522922       0.00000000
H        8.36647668       6.46047921       7.56457620       0.00000000       0.00000000       0.00000000       0.10053143      -0.17458531       0.30702809       0.00000000
H        5.12278194       5.37641788       5.16158928       0.00000000       0.00000000       0.00000000      -1.38679724      -0.31389088      -0.04651882       0.00000000
H        3.15010405       4.80904265       4.43542380       0.00000000       0.00000000       0.00000000      -0.11446208       0.05235083      -0.26619943       0.00000000
H        3.57074190       4.83522090       6.51660694       0.00000000       0.00000000       0.00000000       0.09914174       0.16884139      -0.91671389       0.00000000
N        8.37724923       6.32692893       6.54594768       0.00000000       0.00000000       0.00000000       0.22575984       0.09768573       0.27775070       0.00000000
8
Lattice="12.0 0.0 0.0 0.0 12.0 0.0 0.0 0.0 12.0" Properties=species:S:1:pos:R:3:momenta:R:3:forces:R:3:magmoms:R:1 energy=-34.84408715 stress="0.0026323436475400104 -0.00023087090723824402 0.00118167362787672 -0.00023087090723824402 0.0032857284594325297 -0.00011124726680320812 0.00118167362787672 -0.00011124726680320812 0.0033276506789481674" free_energy=-34.84408715 magmom=0.0 dipole="_JSON [[0.0, 0.0, 0.0]]" nbands=16 pbc="T T T"
B        3.92122125       5.00028359       5.39902956       0.00000000       0.00000000       0.00000000      -0.34613305      -0.34032508      -0.46382484       0.00000000
H        7.35746774       6.33008624       6.24638476       0.00000000       0.00000000       0.00000000       1.60547931      -0.23528629       1.09374198       0.00000000
H        8.72261207       7.27306538       6.18573590       0.00000000       0.00000000       0.00000000      -0.24474233      -1.48688152       0.71143880       0.00000000
H        8.48646460       6.39167646       7.62200837       0.00000000       0.00000000       0.00000000      -0.56739363      -0.00946207      -1.14091994       0.00000000
H        5.04541526       5.26659200       5.46290430       0.00000000       0.00000000       0.00000000       1.23725694       0.51524209      -0.54459146       0.00000000
H        3.27738793       4.92990418       4.37799163       0.00000000       0.00000000       0.00000000       0.08711626       0.11138620       0.26467981       0.00000000
H        3.56233681       4.72693462       6.47199777       0.00000000       0.00000000       0.00000000      -0.97605862      -0.27031842       0.74512924       0.00000000
N        8.40275179       6.30389187       6.56402028       0.00000000       0.00000000       0.00000000      -0.79552488       1.71564509      -0.66565360       0.00000000
8
Lattice="12.0 0.0 0.0 0.0 12.0 0.0 0.0 0.0 12.0" Properties=species:S:1:pos:R:3:momenta:R:3:forces:R:3:magmoms:R:1 energy=-35.09809344 stress="0.0033113087602981957 0.0001778918667891225 -0.0004428211102255026 0.0001778918667891225 0.0024904432059479472 -7.051056577244995e-05 -0.0004428211102255026 -7.051056577244995e-05 0.0027097183816302507" free_energy=-35.09809344 magmom=0.0 dipole="_JSON [[0.0, 0.0, 0.0]]" nbands=16 pbc="T T T"
B        3.92800811       5.05693480       5.47519462       0.00000000       0.00000000       0.00000000       0.20747176       0.08825762      -0.08431478       0.00000000
H        7.39078378       6.32450282       6.41013005       0.00000000       0.00000000       0.00000000       0.12142258       0.06576323      -0.36594588       0.00000000
H        8.71021743       7.30486130       6.24956543       0.00000000       0.00000000       0.00000000       0.01277412       0.32426721      -0.10858517       0.00000000
H        8.43547371       6.42301572       7.59875228       0.00000000       0.00000000       0.00000000       0.35227221       0.05096950       0.28540229       0.00000000
H        5.13079710       5.35787674       5.48529221       0.00000000       0.00000000       0.00000000      -0.72346497      -0.23063740       0.23524813       0.00000000
H        3.36465340       5.14064173       4.40124772       0.00000000       0.00000000       0.00000000       0.05072176      -0.05100040       0.25267686       0.00000000
H        3.28978257       4.69513870       6.46195010       0.00000000       0.00000000       0.00000000       0.46731385       0.19215370      -0.40725038       0.00000000
N        8.41195198       6.38272287       6.57360742       0.00000000       0.00000000       0.00000000      -0.48851131      -0.43977347       0.19276894       0.00000000
8
Lattice="12.0 0.0 0.0 0.0 12.0 0.0 0.0 0.0 12.0" Properties=species:S:1:pos:R:3:momenta:R:3:forces:R:3:magmoms:R:1 energy=-34.89747603 stress="0.0009675450508234005 -0.00034388992002947096 -0.0005166718508142146 -0.00034388992002947096 0.0015784396346622811 0.0007685758136859714 -0.0005166718508142146 0.0007685758136859714 0.0007037922319931035" free_energy=-34.89747603 magmom=0.0 dipole="_JSON [[0.0, 0.0, 0.0]]" nbands=16 pbc="T T T"
B        4.02270561       5.08171248       5.49840453       0.00000000       0.00000000       0.00000000      -0.25560895      -0.02053250      -0.03223106       0.00000000
H        7.54147888       6.35218164       6.38801615       0.00000000       0.00000000       0.00000000      -2.19490707      -0.21979663      -0.33639631       0.00000000
H        8.76800203       7.33716215       6.29447078       0.00000000       0.00000000       0.00000000       0.50508776       1.78092653      -1.03605391       0.00000000
H        8.64246848       6.46811963       7.53566698       0.00000000       0.00000000       0.00000000       0.00848544      -0.46199491       1.21284762       0.00000000
H        5.17596497       5.32092397       5.57753736       0.00000000       0.00000000       0.00000000       0.48626822      -0.06475794       0.54546047       0.00000000
H        3.55028754       5.30262650       4.46433302       0.00000000       0.00000000       0.00000000      -0.42940178       0.25625513      -1.17085827       0.00000000
H        3.23199797       4.66283785       6.27705374       0.00000000       0.00000000       0.00000000       0.21894712      -0.17284399       0.66773557       0.00000000
N        8.50757770       6.41795150       6.54109923       0.00000000       0.00000000       0.00000000       1.66112927      -1.09725570       0.14949590       0.00000000
8
Lattice="12.0 0.0 0.0 0.0 12.0 0.0 0.0 0.0 12.0" Properties=species:S:1:pos:R:3:momenta:R:3:forces:R:3:magmoms:R:1 energy=-35.08877334 stress="0.0029783839359840947 -0.00019381194680331216 0.00048027858477661293 -0.00019381194680331216 0.0029542696969554983 -0.0003981532321208616 0.00048027858477661293 -0.0003981532321208616 0.0037062516846831776" free_energy=-35.08877334 magmom=0.0 dipole="_JSON [[0.0, 0.0, 0.0]]" nbands=16 pbc="T T T"
B        4.02756433       5.08738866       5.54390560       0.00000000       0.00000000       0.00000000       0.09755895       0.27629221      -0.70703502       0.00000000
H        7.51999292       6.38625169       6.42696013       0.00000000       0.00000000       0.00000000       0.09515919      -0.25960321       0.23004717       0.00000000
H        8.74361283       7.42116454       6.25312200       0.00000000       0.00000000       0.00000000       0.16906715      -0.57391747       0.34174859       0.00000000
H        8.73584087       6.38651295       7.58250353       0.00000000       0.00000000       0.00000000      -0.22753152       0.15176826      -0.65105470       0.00000000
H        5.19994373       5.20120167       5.87951696       0.00000000       0.00000000       0.00000000      -0.41243395       0.01847761      -0.19966411       0.00000000
H        3.63750781       5.48127402       4.41749647       0.00000000       0.00000000       0.00000000       0.36290237      -0.31935248       0.97032922       0.00000000
H        3.25638717       4.57883546       6.31507925       0.00000000       0.00000000       0.00000000      -0.03467268       0.02999440      -0.05745571       0.00000000
N        8.54798279       6.43320660       6.55128238       0.00000000       0.00000000       0.00000000      -0.05004952       0.67634068       0.07308455       0.00000000
8
Lattice="12.0 0.0 0.0 0.0 12.0 0.0 0.0 0.0 12.0" Properties=species:S:1:pos:R:3:momenta:R:3:forces:R:3:magmoms:R:1 energy=-34.97378295 stress="0.0019516782727978254 -0.00020210303645444385 0.0006132835214568125 -0.00020210303645444385 0.0012794666976081743 0.00022036004359101934 0.0006132835214568125 0.00022036004359101934 0.0014448852329676937" free_energy=-34.97378295 magmom=0.0 dipole="_JSON [[0.0, 0.0, 0.0]]" nbands=16 pbc="T T T"
B        3.59567174       4.91063984       5.81358112       0.00000000       0.00000000       0.00000000      -0.65751975      -0.27687219      -0.07558708       0.00000000
H        8.89272891       6.73390850       6.91710732       0.00000000       0.00000000       0.00000000      -0.61311567      -0.46748282       0.96665580       0.00000000
H        9.48832951       7.45414414       5.77575973       0.00000000       0.00000000       0.00000000       0.86858795       1.30794153      -1.00558836       0.00000000
H        9.29291473       5.91880744       5.63483565       0.00000000       0.00000000       0.00000000       0.52927583      -1.34813963      -0.54386749       0.00000000
H        2.51167049       4.54585586       5.43256776       0.00000000       0.00000000       0.00000000      -0.00458270       0.02265810      -0.03573405       0.00000000
H        3.81843779       4.84978408       6.97576040       0.00000000       0.00000000       0.00000000       0.21655665       0.04711602       0.38374639       0.00000000
H        4.38051256       5.29681228       5.02423960       0.00000000       0.00000000       0.00000000       0.44135562       0.21031535      -0.27939643       0.00000000
N        8.79569436       6.74290760       5.90339657       0.00000000       0.00000000       0.00000000      -0.78055793       0.50446366       0.58977123       0.00000000
8
Lattice="12.0 0.0 0.0 0.0 12.0 0.0 0.0 0.0 12.0" Properties=species:S:1:pos:R:3:momenta:R:3:forces:R:3:magmoms:R:1 energy=-34.88705984 stress="0.001968349961582463 -0.0003427189192948184 -0.00011667608150882837 -0.0003427189192948184 0.0010942579346368154 -0.00019571196828688616 -0.00011667608150882837 -0.00019571196828688616 0.0008971404721174173" free_energy=-34.88705984 magmom=0.0 dipole="_JSON [[0.0, 0.0, 0.0]]" nbands=16 pbc="T T T"
B        3.58347105       5.07765754       5.84479774       0.00000000       0.00000000       0.00000000       0.84559251      -0.10020428       1.05039860       0.00000000
H        8.89499979       6.63318521       6.73408459       0.00000000       0.00000000       0.00000000      -0.05750575       0.41801802       1.19334923       0.00000000
H        9.31541152       7.49940810       5.47601410       0.00000000       0.00000000       0.00000000       0.69492215       1.43119446      -0.16026964       0.00000000
H        8.94747489       6.06674398       5.37305361       0.00000000       0.00000000       0.00000000      -0.11659705      -1.77325357      -1.32646464       0.00000000
H        2.68458848       5.12108113       5.12533136       0.00000000       0.00000000       0.00000000      -0.80402646       0.18587156      -1.00990179       0.00000000
H        3.42517109       4.50059190       6.87466864       0.00000000       0.00000000       0.00000000      -0.07961119      -0.22708483       0.30634577       0.00000000
H        4.66077809       5.57355749       5.69420346       0.00000000       0.00000000       0.00000000       0.03623146       0.14427176      -0.34153286       0.00000000
N        8.58491414       6.89135924       5.80141844       0.00000000       0.00000000       0.00000000      -0.51900567      -0.07881311       0.28807533       0.00000000
8
Lattice="12.0 0.0 0.0 0.0 12.0 0.0 0.0 0.0 12.0" Properties=species:S:1:pos:R:3:momenta:R:3:forces:R:3:magmoms:R:1 energy=-34.99856293 stress="0.002656289191059952 -0.00030306940801417046 0.0003060664184171823 -0.00030306940801417046 0.001633817605385445 0.00013475056819403565 0.0003060664184171823 0.00013475056819403565 0.0017644350961683937" free_energy=-34.99856293 magmom=0.0 dipole="_JSON [[0.0, 0.0, 0.0]]" nbands=16 pbc="T T T"
B        3.54988535       5.27998142       6.18804551       0.00000000       0.00000000       0.00000000      -0.60059443       0.27118524      -0.56555139       0.00000000
H        8.76568447       6.72629526       6.80802969       0.00000000       0.00000000       0.00000000      -0.04075005      -0.86867822       1.30887248       0.00000000
H        9.03437483       7.61300991       5.64835212       0.00000000       0.00000000       0.00000000       0.05115244       0.61949620      -0.91847480       0.00000000
H        8.23989142       6.23802243       5.37808095       0.00000000       0.00000000       0.00000000      -0.03098084      -0.93956730      -0.74192781       0.00000000
H        2.96562517       5.73343410       5.19197031       0.00000000       0.00000000       0.00000000       0.53008476      -0.19807962       0.58043929       0.00000000
H        3.02180791       4.38699009       6.77764092       0.00000000       0.00000000       0.00000000      -0.10247907      -0.24022196       0.10124211       0.00000000
H        4.58226397       5.70697713       6.60904641       0.00000000       0.00000000       0.00000000       0.18189476       0.16226376      -0.12239641       0.00000000
N        8.26722735       7.03245221       5.98927540       0.00000000       0.00000000       0.00000000       0.01167244       1.19360189       0.35779652       0.00000000
8
Lattice="12.0 0.0 0.0 0.0 12.0 0.0 0.0 0.0 12.0" Properties=species:S:1:pos:R:3:momenta:R:3:forces:R:3:magmoms:R:1 energy=-35.08402773 stress="0.002446310424903686 -3.488948676088434e-05 5.055309692358233e-05 -3.488948676088434e-05 0.0023327916045446768 0.000344041988157814 5.055309692358233e-05 0.000344041988157814 0.002411073329775054" free_energy=-35.08402773 magmom=0.0 dipole="_JSON [[0.0, 0.0, 0.0]]" nbands=16 pbc="T T T"
B        4.00667772       5.27549124       6.04569492       0.00000000       0.00000000       0.00000000      -0.49936783      -0.69569326       0.38049752       0.00000000
H        8.46076305       6.08827211       5.98635720       0.00000000       0.00000000       0.00000000       0.35693552       0.04624645       0.02838357       0.00000000
H        8.77637606       7.36699735       4.92573856       0.00000000       0.00000000       0.00000000      -0.29646095      -0.48511288       0.41368888       0.00000000
H        7.39809232       6.43564859       4.80185070       0.00000000       0.00000000       0.00000000       0.36589486       0.41843513       0.36289903       0.00000000
H        4.61436534       6.12802162       5.56328832       0.00000000       0.00000000       0.00000000       0.64027848       0.92981457      -0.63443582       0.00000000
H        3.22362394       4.63300265       5.41295477       0.00000000       0.00000000       0.00000000      -0.12557367      -0.09775221      -0.11024396       0.00000000
H        4.18165539       5.04709262       7.19814930       0.00000000       0.00000000       0.00000000      -0.01021196      -0.14233448       0.35457339       0.00000000
N        8.04171993       6.88797782       5.49714891       0.00000000       0.00000000       0.00000000      -0.43149445       0.02639668      -0.79536261       0.00000000
8
Lattice="12.0 0.0 0.0 0.0 12.0 0.0 0.0 0.0 12.0" Properties=species:S:1:pos:R:3:momenta:R:3:forces:R:3:magmoms:R:1 energy=-34.97247509 stress="0.00339726060743677 0.00045665451642570875 -0.00016274758763475274 0.00045665451642570875 0.0035119333267954276 -9.3954741347328e-05 -0.00016274758763475274 -9.3954741347328e-05 0.003280224590579671" free_energy=-34.97247509 magmom=0.0 dipole="_JSON [[0.0, 0.0, 0.0]]" nbands=16 pbc="T T T"
B        4.00724056       5.29633582       6.09072854       0.00000000       0.00000000       0.00000000       1.17700945       0.66993590      -0.83918818       0.00000000
H        8.42432075       6.02009271       5.88540452       0.00000000       0.00000000       0.00000000      -0.37663797       0.75356713      -0.13002876       0.00000000
H        8.74907053       7.27729538       4.88173153       0.00000000       0.00000000       0.00000000      -0.43907352      -0.04701399       0.77452597       0.00000000
H        7.36997246       6.50975735       4.74705462       0.00000000       0.00000000       0.00000000      -0.17072177       0.13372311       0.47990602       0.00000000
H        4.86263320       6.16589040       5.67660820       0.00000000       0.00000000       0.00000000      -1.17871722      -0.96578947       0.34242352       0.00000000
H        3.25092947       4.72270462       5.31159876       0.00000000       0.00000000       0.00000000       0.25887572       0.36274966       0.41686740       0.00000000
H        4.09988872       5.01407344       7.25294538       0.00000000       0.00000000       0.00000000      -0.26489726      -0.06969673       0.07316661       0.00000000
N        7.97305899       6.90604268       5.50878550       0.00000000       0.00000000       0.00000000       0.99416258      -0.83747563      -1.11767260       0.00000000
8
Lattice="12.0 0.0 0.0 0.0 12.0 0.0 0.0 0.0 12.0" Properties=species:S:1:pos:R:3:momenta:R:3:forces:R:3:magmoms:R:1 energy=-35.03466793 stress="0.0016976969734097372 -0.0007152948527159036 -0.00044237942983220944 -0.0007152948527159036 0.0020711214399964863 3.1590530870889614e-05 -0.00044237942983220944 3.1590530870889614e-05 0.001789912580654229" free_energy=-35.03466793 magmom=0.0 dipole="_JSON [[0.0, 0.0, 0.0]]" nbands=16 pbc="T T T"
B        4.02572996       5.23467595       6.09309726       0.00000000       0.00000000       0.00000000       0.43605917      -0.12683638       1.07009965       0.00000000
H        8.33548894       5.94498288       5.79488448       0.00000000       0.00000000       0.00000000      -0.44604662      -0.26197975       0.38582825       0.00000000
H        8.70059669       7.17064222       4.96605865       0.00000000       0.00000000       0.00000000       0.61071947       0.94311220      -0.66411193       0.00000000
H        7.26796067       6.52730552       4.74922655       0.00000000       0.00000000       0.00000000      -1.07752765      -0.42641017      -1.07579365       0.00000000
H        4.95107249       5.94349962       5.83434421       0.00000000       0.00000000       0.00000000       0.08906113       0.15948660      -0.10708980       0.00000000
H        3.29940331       4.82935778       5.27263800       0.00000000       0.00000000       0.00000000      -0.52774565      -0.19691076      -0.63435564       0.00000000
H        3.87372490       4.87858084       7.25077345       0.00000000       0.00000000       0.00000000      -0.00637796       0.14953680      -0.32883611       0.00000000
N        7.89587251       6.82030941       5.46411969       0.00000000       0.00000000       0.00000000       0.92185810      -0.23999853       1.35425923       0.00000000
8
Lattice="12.0 0.0 0.0 0.0 12.0 0.0 0.0 0.0 12.0" Properties=species:S:1:pos:R:3:momenta:R:3:forces:R:3:magmoms:R:1 energy=-35.05939506 stress="0.0019200013032670514 -6.665029224223717e-05 0.00016899475780941318 -6.665029224223717e-05 0.0023895234085293177 0.00018787692074154625 0.00016899475780941318 0.00018787692074154625 0.0026126793548578043" free_energy=-35.05939506 magmom=0.0 dipole="_JSON [[0.0, 0.0, 0.0]]" nbands=16 pbc="T T T"
B        4.10538920       5.14010580       6.17617062       0.00000000       0.00000000       0.00000000      -1.37179137      -0.32028669      -0.66382690       0.00000000
H        8.15573175       5.80471346       5.88132282       0.00000000       0.00000000       0.00000000       0.63192597      -0.21199174       0.05569950       0.00000000
H        8.66201369       7.21522138       5.04861371       0.00000000       0.00000000       0.00000000       0.69306821      -0.16719836       0.02947494       0.00000000
H        7.23942302       6.50774598       4.74365198       0.00000000       0.00000000       0.00000000      -0.33583077      -0.03144506      -0.23378178       0.00000000
H        5.09103607       5.75249782       6.01472245       0.00000000       0.00000000       0.00000000       0.66245753       0.28026419      -0.08666424       0.00000000
H        3.33798631       4.89861611       5.22861970       0.00000000       0.00000000       0.00000000       0.60007283       0.13005970       0.49960822       0.00000000
H        3.74246011       4.78477862       7.25634802       0.00000000       0.00000000       0.00000000       0.09796767      -0.08977298       0.24729913       0.00000000
N        7.90357784       6.70730764       5.49050679       0.00000000       0.00000000       0.00000000      -0.97787007       0.41037093       0.15219113       0.00000000
8
Lattice="12.0 0.0 0.0 0.0 12.0 0.0 0.0 0.0 12.0" Properties=species:S:1:pos:R:3:momenta:R:3:forces:R:3:magmoms:R:1 energy=-35.04277055 stress="0.0040012821475318835 0.00033924953899814144 0.00025207018674279735 0.00033924953899814144 0.002614264997768216 -0.00015507083100235438 0.00025207018674279735 -0.00015507083100235438 0.0031732022886849006" free_energy=-35.04277055 magmom=0.0 dipole="_JSON [[0.0, 0.0, 0.0]]" nbands=16 pbc="T T T"
B        4.01050985       5.15605515       6.25835714       0.00000000       0.00000000       0.00000000       0.74284362       0.42025551       0.30387434       0.00000000
H        8.02725685       5.81473194       5.91625897       0.00000000       0.00000000       0.00000000      -0.32708726      -0.23859988      -0.36363319       0.00000000
H        8.61995614       7.20817947       5.24307666       0.00000000       0.00000000       0.00000000      -0.98715089      -0.43823263      -0.02208839       0.00000000
H        7.07856075       6.63506527       4.69543464       0.00000000       0.00000000       0.00000000       0.88133353      -0.29468643       0.71490977       0.00000000
H        5.17841396       5.59794322       6.26638397       0.00000000       0.00000000       0.00000000      -0.85931561      -0.38810103      -0.03070480       0.00000000
H        3.38004386       5.14150691       5.23451326       0.00000000       0.00000000       0.00000000      -0.00341731      -0.05976082      -0.00656083       0.00000000
H        3.51028542       4.79182053       7.30456536       0.00000000       0.00000000       0.00000000       0.09840384       0.02538422      -0.27423129       0.00000000
N        7.73026448       6.71099698       5.51707987       0.00000000       0.00000000       0.00000000       0.45439008       0.97374106      -0.32156561       0.00000000
8
Lattice="12.0 0.0 0.0 0.0 12.0 0.0 0.0 0.0 12.0" Properties=species:S:1:pos:R:3:momenta:R:3:forces:R:3:magmoms:R:1 energy=-35.10108104 stress="0.0023899531676401806 0.00016385717191960667 1.9596154127079373e-06 0.00016385717191960667 0.002610418124758097 0.000246018619222633 1.9596154127079373e-06 0.000246018619222633 0.002390058106133114" free_energy=-35.10108104 magmom=0.0 dipole="_JSON [[0.0, 0.0, 0.0]]" nbands=16 pbc="T T T"
B        4.01881921       5.18425459       6.37254868       0.00000000       0.00000000       0.00000000       0.04571327      -0.26173821       0.34328940       0.00000000
H        7.89313558       5.76283101       5.85612170       0.00000000       0.00000000       0.00000000       0.21178584      -0.01394441       0.14615272       0.00000000