8
Lattice="12.0 0.0 0.0 0.0 12.0 0.0 0.0 0.0 12.0" Properties=species:S:1:pos:R:3:momenta:R:3:forces:R:3:magmoms:R:1 energy=-34.97060324 stress="0.002287820339164445 -0.0002782580298652677 -0.00046750696538437473 -0.0002782580298652677 0.0024241752935207977 -0.00046674897155009093 -0.00046750696538437473 -0.00046674897155009093 0.0030755281259438037" free_energy=-34.97060324 magmom=0.0 dipole="_JSON [[0.0, 0.0, 0.0]]" nbands=16 pbc="T T T"
B        4.53485912       5.52975519       4.42322380       0.00000000       0.00000000       0.00000000       0.26790585      -0.25053177       1.29563391       0.00000000
H        7.74445881       6.96488537       8.69041989       0.00000000       0.00000000       0.00000000       0.37268239       0.29329396       0.57683018       0.00000000
H        7.02549567       6.32802995       7.48178501       0.00000000       0.00000000       0.00000000      -0.42954944      -0.38276265      -0.60177305       0.00000000
H        8.30859742       7.27103759       7.19405918       0.00000000       0.00000000       0.00000000       0.02457988      -0.07404672       0.07660918       0.00000000
H        4.92635579       5.81486538       3.30958011       0.00000000       0.00000000       0.00000000      -0.24294633      -0.03666793       0.37535226       0.00000000
H        3.69140258       4.72896241       4.75545432       0.00000000       0.00000000       0.00000000      -0.18813831      -0.01833277      -0.77854448       0.00000000
H        5.00470173       5.93126782       5.49763666       0.00000000       0.00000000       0.00000000       0.16833509       0.31800790      -0.87415310       0.00000000
N        7.97674083       6.50520995       7.80683447       0.00000000       0.00000000       0.00000000       0.02713086       0.15103998      -0.06995490       0.00000000
8
Lattice="12.0 0.0 0.0 0.0 12.0 0.0 0.0 0.0 12.0" Properties=species:S:1:pos:R:3:momenta:R:3:forces:R:3:magmoms:R:1 energy=-34.26451358 stress="0.0021244072755851814 0.0010572831097449005 0.0009401794224458578 0.0010572831097449005 0.001418181029795239 0.0001423418536004642 0.0009401794224458578 0.0001423418536004642 0.0018771626492079692" free_energy=-34.26451358 magmom=0.0 dipole="_JSON [[0.0, 0.0, 0.0]]" nbands=16 pbc="T T T"
B        4.52656219       3.69740473       5.36472046       0.00000000       0.00000000       0.00000000       1.03157570       0.45618295      -0.56930451       0.00000000
H        7.93424755       8.40185728       7.27349306       0.00000000       0.00000000       0.00000000      -0.59750084       0.04591425      -0.65937859       0.00000000
H        6.88150828       8.69951519       5.83742408       0.00000000       0.00000000       0.00000000       0.17155898      -0.29824798       0.53065138       0.00000000
H        6.74822529       7.17925066       6.81712253       0.00000000       0.00000000       0.00000000       0.53374691       1.54742721      -0.51018813       0.00000000
H        5.37342325       3.30048481       4.72650694       0.00000000       0.00000000       0.00000000       1.30169245      -1.99397487      -0.70415099       0.00000000
H        4.06575245       3.35839420       6.32096265       0.00000000       0.00000000       0.00000000      -1.12867467      -1.00517035       1.75545886       0.00000000
H        4.46978556       4.72195784       4.91932958       0.00000000       0.00000000       0.00000000      -1.19557364       2.54124534      -0.48872166       0.00000000
N        7.20915429       8.10505367       6.60342290       0.00000000       0.00000000       0.00000000      -0.11682490      -1.29337656       0.64563365       0.00000000
8
Lattice="12.0 0.0 0.0 0.0 12.0 0.0 0.0 0.0 12.0" Properties=species:S:1:pos:R:3:momenta:R:3:forces:R:3:magmoms:R:1 energy=-34.12998319 stress="0.0014990147895185167 0.0008348080683714843 -0.0016535509541246204 0.0008348080683714843 0.0008173222933100487 -0.0009151896557246281 -0.0016535509541246204 -0.0009151896557246281 -0.0006302366648539727" free_energy=-34.12998319 magmom=0.0 dipole="_JSON [[0.0, 0.0, 0.0]]" nbands=16 pbc="T T T"
B        4.41761792       5.87261415       7.75278670       0.00000000       0.00000000       0.00000000      -1.79387856       0.93454228      -2.89082548       0.00000000
H        8.09550956       5.63921543       4.36483470       0.00000000       0.00000000       0.00000000       0.22273476      -0.36061808       0.40944694       0.00000000
H        7.83461995       7.02095184       3.34811117       0.00000000       0.00000000       0.00000000      -0.26959617      -0.57489419       1.58339986       0.00000000
H        7.28850486       7.04573784       5.02290069       0.00000000       0.00000000       0.00000000      -0.31746701       0.63594927       1.11717699       0.00000000
H        3.90449044       6.87296451       7.55308781       0.00000000       0.00000000       0.00000000      -0.97124513       1.13989889      -0.80802381       0.00000000
H        4.52695019       4.95426216       7.13435055       0.00000000       0.00000000       0.00000000      -0.19070324      -1.82365334      -1.83007590       0.00000000
H        4.91403071       5.83612458       8.65188883       0.00000000       0.00000000       0.00000000       2.95598636      -0.25276809       5.53193369       0.00000000
N        7.66485099       6.53714934       4.27244925       0.00000000       0.00000000       0.00000000       0.36416899       0.30154325      -3.11303229       0.00000000
8
Lattice="12.0 0.0 0.0 0.0 12.0 0.0 0.0 0.0 12.0" Properties=species:S:1:pos:R:3:momenta:R:3:forces:R:3:magmoms:R:1 energy=-34.44466602 stress="0.005013057028624944 -0.001091705045057165 0.0005807217805583897 -0.001091705045057165 0.0038674589864543356 0.0005892442179867815 0.0005807217805583897 0.0005892442179867815 0.003068688143473876" free_energy=-34.44466602 magmom=0.0 dipole="_JSON [[0.0, 0.0, 0.0]]" nbands=16 pbc="T T T"
B        4.49977341       6.07361138       7.12197531       0.00000000       0.00000000       0.00000000      -0.70339487      -0.15309333      -2.24966524       0.00000000
H        7.50614534       4.90577453       3.82892917       0.00000000       0.00000000       0.00000000      -0.46416914       1.88053125       1.06326905       0.00000000
H        6.25890342       6.30788658       4.08384803       0.00000000       0.00000000       0.00000000       3.74354459      -1.96116516       1.24973503       0.00000000
H        7.99520764       6.29425787       4.87727307       0.00000000       0.00000000       0.00000000      -1.02877071      -0.51702990      -1.00047954       0.00000000
H        4.93342839       5.95668874       8.17107083       0.00000000       0.00000000       0.00000000       0.51626571      -0.18345236       1.41149501       0.00000000
H        4.48596200       7.09422547       6.49911355       0.00000000       0.00000000       0.00000000       0.15910751       0.46828185       0.24774220       0.00000000
H        4.00479236       5.19025739       6.44950008       0.00000000       0.00000000       0.00000000       0.09594217      -0.16413768       0.52887849       0.00000000
N        7.20178064       5.70005027       4.50353026       0.00000000       0.00000000       0.00000000      -2.31852526       0.63006532      -1.25097500       0.00000000
8
Lattice="12.0 0.0 0.0 0.0 12.0 0.0 0.0 0.0 12.0" Properties=species:S:1:pos:R:3:momenta:R:3:forces:R:3:magmoms:R:1 energy=-33.87834823 stress="-0.0006230289825984209 0.00021988671250494884 -0.0016070393467072118 0.00021988671250494884 -0.0004765510431794712 0.001519061892679941 -0.0016070393467072118 0.001519061892679941 0.0012322970728496604" free_energy=-33.87834823 magmom=0.0 dipole="_JSON [[0.0, 0.0, 0.0]]" nbands=16 pbc="T T T"
B        4.13797557       6.76177408       7.56429857       0.00000000       0.00000000       0.00000000      -1.99442192      -1.49936335      -0.44928037       0.00000000
H        6.75074011       5.71459834       4.05554532       0.00000000       0.00000000       0.00000000       1.03705247       0.30120178       0.15726832       0.00000000
H        8.44669428       6.19578183       4.37372011       0.00000000       0.00000000       0.00000000      -0.20377573      -0.54259674      -0.08445591       0.00000000
H        7.82205608       4.50591994       4.45668046       0.00000000       0.00000000       0.00000000       0.89643960      -0.92402226       0.18302938       0.00000000
H        3.55330572       5.83203951       7.64835573       0.00000000       0.00000000       0.00000000      -1.78489493      -2.41252627       0.56522357       0.00000000
H        5.09675931       6.75067854       7.94445468       0.00000000       0.00000000       0.00000000       5.38672198       0.34918177       2.45690865       0.00000000
H        3.76700424       7.49408006       6.89617232       0.00000000       0.00000000       0.00000000      -1.60467541       3.55450677      -2.58453505       0.00000000
N        7.71823302       5.48379643       4.35076466       0.00000000       0.00000000       0.00000000      -1.73244607       1.17361831      -0.24415858       0.00000000
8
Lattice="12.0 0.0 0.0 0.0 12.0 0.0 0.0 0.0 12.0" Properties=species:S:1:pos:R:3:momenta:R:3:forces:R:3:magmoms:R:1 energy=-34.18393052 stress="-0.0010738469015612788 -0.00192847242300741 -6.250682895996481e-05 -0.00192847242300741 0.001478109366505119 -0.0001232690874626449 -6.250682895996481e-05 -0.0001232690874626449 -0.00031988052587117124" free_energy=-34.18393052 magmom=0.0 dipole="_JSON [[0.0, 0.0, 0.0]]" nbands=16 pbc="T T T"
B        4.54451860       7.65760033       6.40948582       0.00000000       0.00000000       0.00000000      -0.59238914      -0.61294547      -0.67695894       0.00000000
H        8.03975948       3.94087597       4.89362800       0.00000000       0.00000000       0.00000000       1.95782580      -0.59903520      -1.10627666       0.00000000
H        6.98920763       5.04182080       5.64363291       0.00000000       0.00000000       0.00000000       0.13239640      -1.15672940      -0.68759639       0.00000000
H        6.34070694       3.66859700       4.84730936       0.00000000       0.00000000       0.00000000      -1.30404582      -0.92066481      -1.02106965       0.00000000
H        4.39227384       7.50863201       5.32754547       0.00000000       0.00000000       0.00000000      -0.87507640      -0.66163495      -2.88400908       0.00000000
H        3.96024052       7.10493394       7.15269064       0.00000000       0.00000000       0.00000000      -1.57916668      -1.35532183       2.25477117       0.00000000
H        5.36510645       8.33140300       6.55096593       0.00000000       0.00000000       0.00000000       3.04729086       2.63240104       1.32116940       0.00000000
N        7.13719798       4.10535069       5.19435798       0.00000000       0.00000000       0.00000000      -0.78683503       2.67393063       2.79997015       0.00000000
8
Lattice="12.0 0.0 0.0 0.0 12.0 0.0 0.0 0.0 12.0" Properties=species:S:1:pos:R:3:momenta:R:3:forces:R:3:magmoms:R:1 energy=-33.9214394 stress="1.3207994502774361e-05 -0.0018157492452657317 -0.0006585973707899459 -0.0018157492452657317 0.0032140707542148155 -0.00014682877464691565 -0.0006585973707899459 -0.00014682877464691565 -0.0010589134044115993" free_energy=-33.9214394 magmom=0.0 dipole="_JSON [[0.0, 0.0, 0.0]]" nbands=16 pbc="T T T"
B        5.05390205       7.88785053       6.00442234       0.00000000       0.00000000       0.00000000      -0.12173326       0.96666259      -1.35811989       0.00000000
H        7.86418392       3.37743669       6.00535494       0.00000000       0.00000000       0.00000000      -0.51789956       0.47116096      -0.17417251       0.00000000
H        6.47437017       3.64952784       4.96035301       0.00000000       0.00000000       0.00000000      -1.45147705      -0.93775491      -0.35445448       0.00000000
H        7.41074701       5.02567308       5.32448929       0.00000000       0.00000000       0.00000000       0.11929587      -2.35519514       0.46818959       0.00000000
H        5.69544545       8.62256331       5.48317448       0.00000000       0.00000000       0.00000000       1.97631004       1.33166601      -2.02464027       0.00000000
H        4.13581608       7.56199444       5.51000675       0.00000000       0.00000000       0.00000000      -2.46270734      -1.71683372      -1.31252865       0.00000000
H        5.24761620       8.00985140       7.03964699       0.00000000       0.00000000       0.00000000       0.60223543      -0.60397139       4.71367841       0.00000000
N        7.31830412       3.94902554       5.35343510       0.00000000       0.00000000       0.00000000       1.85597588       2.84426560       0.04204779       0.00000000
8
Lattice="12.0 0.0 0.0 0.0 12.0 0.0 0.0 0.0 12.0" Properties=species:S:1:pos:R:3:momenta:R:3:forces:R:3:magmoms:R:1 energy=-34.04479997 stress="-0.001415373767511163 -0.0022547873081534358 -0.00048125853915843137 -0.0022547873081534358 0.0010080817177281832 0.00016094484631241476 -0.00048125853915843137 0.00016094484631241476 -0.0009061211736288494" free_energy=-34.04479997 magmom=0.0 dipole="_JSON [[0.0, 0.0, 0.0]]" nbands=16 pbc="T T T"
B        4.94896665       8.05036693       6.20209430       0.00000000       0.00000000       0.00000000       1.19944733       0.77198161      -0.39351167       0.00000000
H        6.29638992       3.63496201       5.62138351       0.00000000       0.00000000       0.00000000      -2.62001650      -1.98240340      -1.12045384       0.00000000
H        7.87385256       3.79328821       5.95610057       0.00000000       0.00000000       0.00000000      -0.29345596       0.86471021       0.63562392       0.00000000
H        6.62308068       4.98033387       6.51658465       0.00000000       0.00000000       0.00000000       0.09777002       0.97062699       1.15386365       0.00000000
H        5.82560528       8.25037411       6.83208976       0.00000000       0.00000000       0.00000000       2.76753934       0.52443865       1.35930513       0.00000000
H        4.81110057       8.36503799       5.16791024       0.00000000       0.00000000       0.00000000      -0.06434613       0.87131211      -3.22577584       0.00000000
H        4.12614744       7.64053276       6.71691547       0.00000000       0.00000000       0.00000000      -3.88683006      -2.17668449       2.23134263       0.00000000
N        6.94588899       4.23237168       5.97152659       0.00000000       0.00000000       0.00000000       2.79989197       0.15601832      -0.64039398       0.00000000
8
Lattice="12.0 0.0 0.0 0.0 12.0 0.0 0.0 0.0 12.0" Properties=species:S:1:pos:R:3:momenta:R:3:forces:R:3:magmoms:R:1 energy=-33.95806131 stress="-0.0005515428252590316 -0.0013443379662627518 -0.0001627735523127164 -0.0013443379662627518 0.0018414359076884116 -0.0014316570222168605 -0.0001627735523127164 -0.0014316570222168605 -0.0014168462081705594" free_energy=-33.95806131 magmom=0.0 dipole="_JSON [[0.0, 0.0, 0.0]]" nbands=16 pbc="T T T"
B        5.16072290       7.91905730       5.72681075       0.00000000       0.00000000       0.00000000       2.29577152       1.26337628       0.77072636       0.00000000
H        7.66856410       4.36650476       6.42664067       0.00000000       0.00000000       0.00000000       0.24077221      -0.26549960      -0.32344671       0.00000000
H        5.97589822       4.31465477       6.73502264       0.00000000       0.00000000       0.00000000      -0.00210577       0.04492815       0.34035437       0.00000000
H        6.46814979       3.67335800       5.28572940       0.00000000       0.00000000       0.00000000       0.33375476      -0.75489442      -1.28112385       0.00000000
H        4.85612613       8.15154395       6.73771555       0.00000000       0.00000000       0.00000000      -0.59906753       0.76369379       3.90410966       0.00000000
H        6.14660223       8.32664200       5.41482945       0.00000000       0.00000000       0.00000000       2.18138501       0.47355847      -1.22371459       0.00000000
H        4.33143590       7.50286118       5.26228445       0.00000000       0.00000000       0.00000000      -3.83672931      -2.56518183      -3.46326304       0.00000000
N        6.74173066       4.14903204       6.09988336       0.00000000       0.00000000       0.00000000      -0.61378090       1.04001917       1.27635781       0.00000000
8
Lattice="12.0 0.0 0.0 0.0 12.0 0.0 0.0 0.0 12.0" Properties=species:S:1:pos:R:3:momenta:R:3:forces:R:3:magmoms:R:1 energy=-34.07673124 stress="-0.00046052583118556513 -0.0010863047977388138 0.0005276137905307275 -0.0010863047977388138 0.002094699664462861 -0.0005680107225292 0.0005276137905307275 -0.0005680107225292 0.0012076855290984408" free_energy=-34.07673124 magmom=0.0 dipole="_JSON [[0.0, 0.0, 0.0]]" nbands=16 pbc="T T T"
B        5.41655439       7.86220716       5.63638437       0.00000000       0.00000000       0.00000000      -0.38104434      -0.80107078      -1.54635580       0.00000000
H        5.90265486       3.54613874       6.33682678       0.00000000       0.00000000       0.00000000       0.69897822       0.29694076       0.07165457       0.00000000
H        7.51556390       3.75684678       5.72099153       0.00000000       0.00000000       0.00000000       0.51804176       0.25062593      -0.33522124       0.00000000
H        7.09900043       4.34694821       7.39639584       0.00000000       0.00000000       0.00000000      -0.21153712      -0.90183340      -1.96408396       0.00000000
H        4.48443610       7.82958421       6.18448377       0.00000000       0.00000000       0.00000000      -3.70551092      -0.84633568       1.24774201       0.00000000
H        6.03270729       8.45386126       6.26089408       0.00000000       0.00000000       0.00000000       3.66207154       2.47296636       2.22961408       0.00000000
H        5.63485156       7.49153601       4.60360416       0.00000000       0.00000000       0.00000000       0.44207317      -0.86040447      -1.92460096       0.00000000
N        6.88506710       3.81875216       6.49167760       0.00000000       0.00000000       0.00000000      -1.02307232       0.38911127       2.22125129       0.00000000
8
Lattice="12.0 0.0 0.0 0.0 12.0 0.0 0.0 0.0 12.0" Properties=species:S:1:pos:R:3:momenta:R:3:forces:R:3:magmoms:R:1 energy=-34.81150055 stress="0.002032562832163878 -0.0008100249829834491 0.0013832657468771375 -0.0008100249829834491 0.0019700518089097807 -1.5143686211002787e-05 0.0013832657468771375 -1.5143686211002787e-05 0.0009314355737227345" free_energy=-34.81150055 magmom=0.0 dipole="_JSON [[0.0, 0.0, 0.0]]" nbands=16 pbc="T T T"
B        5.55036102       7.58567793       5.55386985       0.00000000       0.00000000       0.00000000      -0.58744717      -1.50953847      -0.62667019       0.00000000
H        7.27175887       4.69599567       7.08920210       0.00000000       0.00000000       0.00000000      -1.96629366      -0.21919997      -0.74381566       0.00000000
H        5.68334175       4.15120471       7.24383071       0.00000000       0.00000000       0.00000000      -1.31029339      -1.09674564       1.58349515       0.00000000
H        6.38152328       4.08539557       5.82044699       0.00000000       0.00000000       0.00000000       0.21923349      -0.99859314      -1.48514224       0.00000000
H        4.72824113       7.02721154       4.90545614       0.00000000       0.00000000       0.00000000      -1.01355893      -0.16214326       0.27956089       0.00000000
H        5.59033215       7.53249640       6.71410385       0.00000000       0.00000000       0.00000000       0.01634905       0.48634922       0.83211662       0.00000000
H        6.30563212       7.91460443       4.75616929       0.00000000       0.00000000       0.00000000       1.55830244       1.06118917      -0.38279641       0.00000000
N        6.27826710       4.63141454       6.63681628       0.00000000       0.00000000       0.00000000       3.08370818       2.43868208       0.54325183       0.00000000
8
Lattice="12.0 0.0 0.0 0.0 12.0 0.0 0.0 0.0 12.0" Properties=species:S:1:pos:R:3:momenta:R:3:forces:R:3:magmoms:R:1 energy=-34.99168025 stress="0.004744168415217959 -0.0005136467536201362 0.000788457173572558 -0.0005136467536201362 0.002713498738877616 -0.00043060579030014523 0.000788457173572558 -0.00043060579030014523 0.0011698120017905082" free_energy=-34.99168025 magmom=0.0 dipole="_JSON [[0.0, 0.0, 0.0]]" nbands=16 pbc="T T T"
B        5.56495292       7.44924433       5.36066932       0.00000000       0.00000000       0.00000000       0.81090275       0.23965637       0.64400004       0.00000000
H        7.37726126       4.36812017       6.63654129       0.00000000       0.00000000       0.00000000      -2.40904235       0.31436506      -0.13202719       0.00000000
H        5.81158185       4.64930143       7.31420556       0.00000000       0.00000000       0.00000000      -0.75366081       0.10924889       2.18977743       0.00000000
H        5.88547286       3.82036037       5.94941084       0.00000000       0.00000000       0.00000000       0.07690798      -0.41895598      -0.31977627       0.00000000
H        4.62273874       7.13035047       4.68579444       0.00000000       0.00000000       0.00000000       0.35423109      -0.31559895      -0.33087508       0.00000000
H        5.26748256       8.17963963       6.27906595       0.00000000       0.00000000       0.00000000      -0.00170351      -0.08724643       0.12753500       0.00000000
H        6.78868827       7.24847292       5.26351872       0.00000000       0.00000000       0.00000000      -1.00937399      -0.00576320      -0.44609414       0.00000000
N        6.31037110       4.57581920       6.47779440       0.00000000       0.00000000       0.00000000       2.93173884       0.16429424      -1.73253980       0.00000000
8
Lattice="12.0 0.0 0.0 0.0 12.0 0.0 0.0 0.0 12.0" Properties=species:S:1:pos:R:3:momenta:R:3:forces:R:3:magmoms:R:1 energy=-34.68667289 stress="0.0019417360792885689 -0.0010508313803501482 -0.00046162905537261976 -0.0010508313803501482 0.002435259133947288 -0.00028872570851085034 -0.00046162905537261976 -0.00028872570851085034 1.962491500113144e-05" free_energy=-34.68667289 magmom=0.0 dipole="_JSON [[0.0, 0.0, 0.0]]" nbands=16 pbc="T T T"
B        5.55318448       7.57603438       5.22351968       0.00000000       0.00000000       0.00000000       1.34120417       0.26873988       0.34497102       0.00000000
H        7.05618049       4.38212690       5.98030049       0.00000000       0.00000000       0.00000000      -1.82346568       0.49638442       1.18755550       0.00000000
H        6.43101595       4.62809680       7.53208994       0.00000000       0.00000000       0.00000000      -0.23015763      -0.36270607       0.29444124       0.00000000
H        5.43506319       3.93535053       6.28705517       0.00000000       0.00000000       0.00000000       0.61186006       0.45689972       0.66623803       0.00000000
H        4.94381951       7.10039572       4.46791006       0.00000000       0.00000000       0.00000000      -2.11659349      -1.50481214      -2.75811673       0.00000000
H        5.19809952       7.51012898       6.25970140       0.00000000       0.00000000       0.00000000      -0.92702737       0.18840782       2.93859831       0.00000000
H        6.53200782       8.06464947       4.93354115       0.00000000       0.00000000       0.00000000       1.66079851       0.92360672      -0.39934861       0.00000000
N        6.15263864       4.65578300       6.55083240       0.00000000       0.00000000       0.00000000       1.48338144      -0.46652034      -2.27433876       0.00000000
8
Lattice="12.0 0.0 0.0 0.0 12.0 0.0 0.0 0.0 12.0" Properties=species:S:1:pos:R:3:momenta:R:3:forces:R:3:magmoms:R:1 energy=-34.40180952 stress="-0.00092869492082405 5.3176621662010464e-05 0.0015573427783224835 5.3176621662010464e-05 0.002789123959235344 -0.00016040131697320548 0.0015573427783224835 -0.00016040131697320548 0.001988634148468034" free_energy=-34.40180952 magmom=0.0 dipole="_JSON [[0.0, 0.0, 0.0]]" nbands=16 pbc="T T T"
B        5.87844434       8.22543374       5.04885016       0.00000000       0.00000000       0.00000000      -0.23925750       0.34533080      -1.10067529       0.00000000
H        5.67489809       4.12840531       7.87634428       0.00000000       0.00000000       0.00000000      -7.66811728       0.84374650       3.80552504       0.00000000
H        6.64745713       3.26155375       6.90393983       0.00000000       0.00000000       0.00000000       0.16558279      -0.19527904      -0.11839034       0.00000000
H        7.23618987       4.64683442       7.75619143       0.00000000       0.00000000       0.00000000       0.15812250       0.08505949       0.12148911       0.00000000
H        6.31552060       7.52467555       4.12365572       0.00000000       0.00000000       0.00000000      -0.34188159       0.27309129       0.71269312       0.00000000
H        4.76381013       8.73844625       4.96290622       0.00000000       0.00000000       0.00000000       0.38677436      -0.46700377       0.06550335       0.00000000
H        6.58198207       8.59059422       5.93625298       0.00000000       0.00000000       0.00000000       0.20411547      -0.16546154       0.31647656       0.00000000
N        6.47083959       4.04942682       7.50079609       0.00000000       0.00000000       0.00000000       7.33466125      -0.71948373      -3.80262156       0.00000000
8
Lattice="12.0 0.0 0.0 0.0 12.0 0.0 0.0 0.0 12.0" Properties=species:S:1:pos:R:3:momenta:R:3:forces:R:3:magmoms:R:1 energy=-34.02208174 stress="8.871131818727385e-06 0.0006002831382720923 -0.0013150587099117407 0.0006002831382720923 -4.17640159838238e-05 -0.0019629975242240164 -0.0013150587099117407 -0.0019629975242240164 0.00047118018712759394" free_energy=-34.02208174 magmom=0.0 dipole="_JSON [[0.0, 0.0, 0.0]]" nbands=16 pbc="T T T"
B        7.23755126       6.63808763       3.91842004       0.00000000       0.00000000       0.00000000       0.44206931       0.69888024       0.77994283       0.00000000
H        5.02137476       5.25158200       8.68655410       0.00000000       0.00000000       0.00000000       0.29218630       0.26380824       0.35677843       0.00000000
H        3.89635145       6.38899970       7.83998377       0.00000000       0.00000000       0.00000000       0.74754905      -1.06225259       0.40540730       0.00000000
H        4.08823502       4.72693397       7.35170815       0.00000000       0.00000000       0.00000000      -0.13482633      -0.41772800      -0.40846141       0.00000000
H        6.38741713       7.27306603       3.77610214       0.00000000       0.00000000       0.00000000      -3.11567245       2.64524145      -0.15477993       0.00000000
H        8.10364855       6.75942718       4.56023263       0.00000000       0.00000000       0.00000000       2.53962925       0.91578445       2.41959189       0.00000000
H        7.31503397       5.78465051       3.31344590       0.00000000       0.00000000       0.00000000       0.12730142      -4.26099500      -3.03499810       0.00000000
N        4.33068310       5.45356698       7.99176411       0.00000000       0.00000000       0.00000000      -0.89823655       1.21726120      -0.36348101       0.00000000
8
Lattice="12.0 0.0 0.0 0.0 12.0 0.0 0.0 0.0 12.0" Properties=species:S:1:pos:R:3:momenta:R:3:forces:R:3:magmoms:R:1 energy=-35.01695244 stress="0.003269498170173275 0.0009766044515234012 2.9148091036730728e-05 0.0009766044515234012 0.00325973832859464 0.0008304288695310365 2.9148091036730728e-05 0.0008304288695310365 0.0030876282151276794" free_energy=-35.01695244 magmom=0.0 dipole="_JSON [[0.0, 0.0, 0.0]]" nbands=16 pbc="T T T"
B        7.18608165       6.32177312       5.00577592       0.00000000       0.00000000       0.00000000      -0.74248915      -0.33005111      -0.18927913       0.00000000
H        3.86816620       5.71420796       7.06267959       0.00000000       0.00000000       0.00000000       1.53890961       0.26274840       0.53558667       0.00000000
H        5.11200992       4.67634680       7.53502482       0.00000000       0.00000000       0.00000000       0.12678691       0.45481842       0.37705925       0.00000000
H        5.30930321       6.41551639       7.91970766       0.00000000       0.00000000       0.00000000      -1.14705493      -1.88179876      -1.15736689       0.00000000
H        6.70133528       5.72452785       4.08029234       0.00000000       0.00000000       0.00000000      -0.17272372       0.29251393      -0.07179936       0.00000000
H        6.79447698       7.32365320       5.48727467       0.00000000       0.00000000       0.00000000      -0.31488963       0.57348392      -0.13761502       0.00000000
H        8.13183380       5.85267414       5.47956418       0.00000000       0.00000000       0.00000000       1.06189658      -0.51353624       0.51092326       0.00000000
N        4.92094058       5.64723983       7.24242988       0.00000000       0.00000000       0.00000000      -0.35043567       1.14182143       0.13249122       0.00000000
8
Lattice="12.0 0.0 0.0 0.0 12.0 0.0 0.0 0.0 12.0" Properties=species:S:1:pos:R:3:momenta:R:3:forces:R:3:magmoms:R:1 energy=-34.97552102 stress="0.0014352327703120607 0.0002197177673359294 -0.001065835830975571 0.0002197177673359294 0.0012835008221335794 0.0002849797669448055 -0.001065835830975571 0.0002849797669448055 0.0004771311227961217" free_energy=-34.97552102 magmom=0.0 dipole="_JSON [[0.0, 0.0, 0.0]]" nbands=16 pbc="T T T"
B        6.96845686       6.11167037       4.69552505       0.00000000       0.00000000       0.00000000      -0.45066077       1.43914037       0.13046389       0.00000000
H        4.21441539       6.35195800       6.55410318       0.00000000       0.00000000       0.00000000      -0.41782588       0.89921758      -0.38591280       0.00000000