8
 Atoms. Timestep: 0
B 5.74046 6.33007 5.41224
H 7.13765 6.17173 7.19603
H 6.99131 4.6591 6.48592
H 5.76199 5.3298 7.42483
H 5.30281 7.3409 5.86648
H 4.86235 5.64183 4.93919
H 6.6291 6.51884 4.57517
N 6.45143 5.56858 6.69633
8
 Atoms. Timestep: 20
B 5.69914 6.32617 5.39414
H 7.20027 6.25253 7.02132
H 6.95719 4.6213 6.46847
H 5.77378 5.41241 7.41774
H 5.29364 7.37814 5.89224
H 4.81011 5.55228 5.18547
H 6.50975 6.55746 4.6124
N 6.49334 5.5636 6.70243
8
 Atoms. Timestep: 40
B 5.66231 6.30542 5.435
H 7.33431 6.15349 7.0218
H 6.927 4.63347 6.40689
H 5.9298 5.46152 7.51549
H 5.25708 7.36719 5.97606
H 4.76896 5.46705 5.16696
H 6.46231 6.40902 4.48344
N 6.51213 5.59977 6.67284
8
 Atoms. Timestep: 60
B 5.63253 6.2662 5.49825
H 7.42601 6.14944 6.86184
H 6.82079 4.64157 6.30204
H 6.01948 5.46624 7.5308
H 5.21156 7.34142 5.84664
H 4.70866 5.49424 5.2149
H 6.40863 6.3594 4.46471
N 6.54113 5.63284 6.64903
8
 Atoms. Timestep: 80
B 5.58624 6.25754 5.49823
H 7.42845 6.22361 6.68868
H 6.85778 4.64603 6.28382
H 6.14263 5.58383 7.57445
H 5.23585 7.33511 5.84431
H 4.72022 5.43814 5.48171
H 6.33517 6.35123 4.57683
N 6.56791 5.63055 6.6327
8
 Atoms. Timestep: 100
B 5.53452 6.24841 5.49841
H 7.49161 6.21485 6.63503
H 6.95015 4.61856 6.46555
H 6.2848 5.61806 7.60644
H 5.23254 7.35844 5.99983
H 4.60728 5.43992 5.47356
H 6.10677 6.23867 4.46235
N 6.61116 5.64398 6.61877
8
 Atoms. Timestep: 120
B 5.47941 6.21271 5.5301
H 7.53073 6.24693 6.55569
H 6.94051 4.61678 6.42249
H 6.24406 5.7858 7.54005
H 5.24458 7.3725 5.98095
H 4.45182 5.49343 5.55819
H 5.96396 6.24999 4.34674
N 6.67492 5.65174 6.61138
8
 Atoms. Timestep: 140
B 5.43291 6.19928 5.5624
H 7.56736 6.23919 6.44704
H 6.94341 4.62293 6.48129
H 6.36846 5.77416 7.54187
H 5.26492 7.30875 5.91391
H 4.56742 5.43097 5.89437
H 5.97308 6.18285 4.42591
N 6.68872 5.67686 6.56501
8
 Atoms. Timestep: 160
B 5.44166 6.1753 5.62474
H 7.57831 6.21495 6.30576
H 6.94313 4.67032 6.33068
H 6.58124 5.83051 7.54746
H 5.18882 7.31346 5.90719
H 4.58151 5.39379 5.94192
H 5.71461 5.92398 4.51168
N 6.68891 5.71049 6.52833
8
 Atoms. Timestep: 180
B 5.41336 6.11711 5.69543
H 7.52704 6.28876 6.11082
H 6.8333 4.69109 6.26713
H 6.64346 5.83983 7.50543
H 5.17127 7.38042 5.83349
H 4.42965 5.4413 6.08718
H 5.61862 5.83537 4.52381
N 6.73676 5.74611 6.48928
8
 Atoms. Timestep: 200
B 5.30834 6.0976 5.72665
H 7.56729 6.2857 6.05716
H 7.10873 4.72996 6.34419
H 6.82005 5.95473 7.45161
H 5.2763 7.33148 5.81391
H 4.51509 5.47447 6.442
H 5.62814 5.77273 4.52535
N 6.76832 5.756 6.44331
8
 Atoms. Timestep: 220
B 5.27138 6.09304 5.75989
H 7.46398 6.35437 5.88024
H 7.1776 4.74457 6.40632
H 6.84759 6.08431 7.38603
H 5.17006 7.23662 5.84799
H 4.52473 5.51103 6.47894
H 5.14061 5.57971 4.65129
N 6.83905 5.76226 6.41649
8
 Atoms. Timestep: 240
B 5.23557 6.03486 5.8241
H 7.52886 6.29286 5.77028
H 7.14486 4.76625 6.36531
H 6.88556 6.18285 7.29627
H 5.14077 7.27906 5.80371
H 4.52299 5.5514 6.69637
H 5.03581 5.55074 4.77466
N 6.87137 5.79911 6.36297
8
 Atoms. Timestep: 260
B 5.21541 5.99555 5.9156
H 7.5626 6.22743 5.69231
H 7.11599 4.81053 6.4089
H 7.08478 6.21303 7.19668
H 5.14853 7.28129 5.73888
H 4.69381 5.55398 6.96976
H 5.21986 5.39979 4.83645
N 6.84644 5.83922 6.28264
8
 Atoms. Timestep: 280
B 5.27931 5.99523 5.98666
H 7.31403 6.18723 5.43307
H 7.03068 4.82466 6.30906
H 7.14354 6.35161 7.07772
H 4.90489 7.1075 5.76866
H 4.71153 5.51861 6.95481
H 4.9912 5.14892 5.06869
N 6.84927 5.86429 6.24432
8
 Atoms. Timestep: 300
B 5.25814 5.94493 6.05895
H 7.24806 6.18723 5.34062
H 7.16766 4.89602 6.37379
H 7.29868 6.4448 6.89428
H 4.93842 7.02787 5.76366
H 4.82186 5.6054 7.12502
H 4.9513 5.17042 5.18472
N 6.84202 5.88929 6.18355
8
 Atoms. Timestep: 320
B 5.18637 5.8955 6.1406
H 7.26067 6.10529 5.24105
H 7.32059 4.98663 6.37938
H 7.22144 6.59565 6.77785
H 5.04059 7.11798 5.77837
H 4.91595 5.68817 7.33099
H 4.97697 5.11538 5.27373
N 6.87523 5.90761 6.11347
8
 Atoms. Timestep: 340
B 5.18951 5.89162 6.19174
H 7.15479 6.10338 5.13922
H 7.37761 5.05442 6.45352
H 7.17018 6.72338 6.6141
H 4.77905 7.05623 5.85217
H 4.89978 5.63573 7.38128
H 4.69688 4.96588 5.49968
N 6.9198 5.91562 6.06269
8
 Atoms. Timestep: 360
B 5.18558 5.87128 6.25339
H 7.17395 5.95615 5.0862
H 7.43385 5.12849 6.40955
H 7.30773 6.75378 6.46796
H 4.78205 6.89472 5.88152
H 5.14145 5.69848 7.44085
H 4.74491 4.91679 5.57532
N 6.88672 5.94492 6.02074
8
 Atoms. Timestep: 380
B 5.22845 5.84163 6.32126
H 7.03913 5.91352 5.01347
H 7.27203 5.13476 6.46071
H 7.29151 6.81434 6.31165
H 4.81143 6.88104 5.89989
H 5.2245 5.76657 7.5239
H 4.98183 4.86801 5.67712
N 6.85104 5.96566 5.96657
8
 Atoms. Timestep: 400
B 5.31296 5.8396 6.3627
H 6.8895 5.85258 4.96123
H 7.37318 5.19354 6.3841
H 7.25669 6.8553 6.21514
H 4.58729 6.82281 5.89583
H 5.16513 5.73242 7.60682
H 4.9148 4.77473 5.9136
N 6.81684 5.97772 5.92818
8
 Atoms. Timestep: 420
B 5.29456 5.81331 6.42436
H 6.8377 5.90265 4.91747
H 7.53617 5.29542 6.2507
H 7.21694 6.92045 6.04395
H 4.65825 6.73408 5.86886
H 5.42037 5.91041 7.65714
H 4.9016 4.69352 6.01887
N 6.80357 5.98192 5.89631
8
 Atoms. Timestep: 440
B 5.27001 5.78597 6.50412
H 6.78068 5.86871 4.8514
H 7.5336 5.3374 6.25101
H 7.07255 6.9666 6.07654
H 4.73649 6.63784 5.96487
H 5.45494 6.05639 7.63602
H 4.96534 4.64625 6.20085
N 6.82447 5.99896 5.8188
8
 Atoms. Timestep: 460
B 5.29681 5.77549 6.55745
H 6.8425 5.89544 4.7891
H 7.5857 5.38323 6.16951
H 7.1084 6.99385 5.92883
H 4.4929 6.55817 5.97613
H 5.42767 6.03876 7.75252
H 4.9577 4.62389 6.46433
N 6.81299 6.00846 5.77054
8
 Atoms. Timestep: 480
B 5.32562 5.76729 6.59638
H 6.68687 5.80584 4.78353
H 7.55782 5.39762 6.13935
H 7.14895 6.9999 5.83377
H 4.3995 6.44331 5.96423
H 5.6637 6.16779 7.75347
H 5.15698 4.55349 6.50779
N 6.77655 6.02375 5.74752
8
 Atoms. Timestep: 500
B 5.39584 5.76186 6.62317
H 6.52758 5.75065 4.79419
H 7.4765 5.37505 6.12537
H 7.04825 7.02916 5.71898
H 4.52692 6.34673 6.08074
H 5.64828 6.26131 7.68538
H 5.34737 4.53694 6.58908
N 6.72516 6.0328 5.72603
8
 Atoms. Timestep: 520
B 5.46866 5.76845 6.65709
H 6.51759 5.73308 4.75458
H 7.59309 5.53345 5.99366
H 6.99042 7.03869 5.62465
H 4.52073 6.21429 6.12339
H 5.61713 6.22529 7.74127
H 5.32078 4.55866 6.78849
N 6.67007 6.02745 5.69756
8
 Atoms. Timestep: 540
B 5.46624 5.7431 6.72534
H 6.40947 5.67508 4.75532
H 7.63479 5.60737 5.93133
H 6.73227 7.09223 5.56731
H 4.4061 6.2071 6.10061
H 5.84874 6.38397 7.7617
H 5.41607 4.52252 6.85525
N 6.67995 6.03381 5.64881
8
 Atoms. Timestep: 560
B 5.46998 5.71562 6.7895
H 6.4481 5.59449 4.72197
H 7.67112 5.75652 5.8852
H 6.72346 7.09371 5.42558
H 4.42606 6.21874 6.30148
H 5.87709 6.44282 7.70864
H 5.52344 4.52773 6.97067
N 6.66123 6.0446 5.59631
8
 Atoms. Timestep: 580
B 5.51217 5.73557 6.83581
H 6.5116 5.52017 4.70531
H 7.62238 5.79208 5.91344
H 6.64146 7.07854 5.25416
H 4.48492 6.02379 6.43801
H 5.86167 6.33119 7.78084
H 5.56605 4.54459 7.05796
N 6.62733 6.05376 5.55085
8
 Atoms. Timestep: 600
B 5.56107 5.73716 6.85574
H 6.37413 5.40191 4.80261
H 7.59647 5.91232 5.92649
H 6.51886 7.05591 5.19142
H 4.42622 5.98161 6.43553
H 6.01235 6.42523 7.77316
H 5.76589 4.50832 6.98871
N 6.5892 6.05289 5.53775
8
 Atoms. Timestep: 620
B 5.63524 5.72123 6.83874
H 6.3617 5.36235 4.84057
H 7.61726 5.96758 5.70362
H 6.3701 6.99369 5.07947
H 4.39963 6.02474 6.52572
H 6.05185 6.54256 7.71674
H 5.88077 4.54407 7.07943
N 6.53288 6.05449 5.56318
8
 Atoms. Timestep: 640
B 5.70646 5.74222 6.85763
H 6.29393 5.35637 4.82072
H 7.56454 6.11506 5.7057
H 6.18144 6.98914 5.15132
H 4.54495 5.8579 6.55818
H 6.03815 6.50147 7.72293
H 5.87201 4.62824 7.21882
N 6.49124 6.03735 5.53203
8
 Atoms. Timestep: 660
B 5.7184 5.73854 6.92905
H 6.31642 5.34232 4.78018
H 7.54339 6.14225 5.58727
H 6.06374 6.96985 5.16545
H 4.59732 5.79995 6.61064
H 6.11103 6.61122 7.64884
H 6.07923 4.5904 7.24441
N 6.4666 6.03963 5.48699
8
 Atoms. Timestep: 680
B 5.74287 5.71338 6.97667
H 6.25473 5.33668 4.77433
H 7.51936 6.19252 5.47312
H 6.08377 6.93545 4.98036
H 4.46905 5.74435 6.81873
H 6.13301 6.72552 7.62026
H 6.29502 4.63479 7.3285
N 6.44459 6.05095 5.45322
8
 Atoms. Timestep: 700
B 5.79976 5.73544 7.00413
H 6.22687 5.25435 4.8443
H 7.46974 6.12684 5.53958
H 6.00401 6.94112 5.00174
H 4.55262 5.50532 6.91234
H 6.10386 6.70007 7.7125
H 6.34777 4.73909 7.36052
N 6.40428 6.05554 5.40521
8
 Atoms. Timestep: 720
B 5.84849 5.74687 7.02362
H 6.14777 5.288 4.79814
H 7.42275 6.20054 5.41943
H 5.95274 6.88853 4.95
H 4.73462 5.47779 6.84054
H 6.06975 6.73781 7.62784
H 6.54297 4.81224 7.28198
N 6.35485 6.03686 5.42253
8
 Atoms. Timestep: 740
B 5.90647 5.74627 6.97888
H 6.10084 5.24887 4.87781
H 7.35787 6.20295 5.25029
H 5.79458 6.86574 5.06554
H 4.73138 5.4371 6.95303
H 6.05449 6.83285 7.53407
H 6.72871 4.85488 7.39335
N 6.31746 6.03464 5.44589
8
 Atoms. Timestep: 760
B 5.98143 5.76638 6.94999
H 6.01082 5.23951 4.90204
H 7.28787 6.30639 5.27776
H 5.65134 6.80667 5.15607
H 4.78848 5.2805 7.06865
H 6.08177 6.88168 7.53011
H 6.74515 4.93883 7.4845
N 6.2741 6.01833 5.44353
8
 Atoms. Timestep: 780
B 6.02908 5.77263 7.02962
H 6.11723 5.24126 4.815
H 7.19741 6.34215 5.17734
H 5.60364 6.76769 5.0591
H 4.90469 5.29169 7.01846
H 6.10343 6.88667 7.49076
H 6.91299 5.05434 7.29257
N 6.21777 6.0042 5.42252
8
 Atoms. Timestep: 800
B 6.06045 5.76836 7.07125
H 6.07897 5.15369 4.93526
H 7.14033 6.42823 5.18074
H 5.45211 6.63657 4.97848
H 5.02947 5.26075 7.29977
H 6.1315 6.86474 7.54587
H 7.06058 5.08967 7.28036
N 6.18974 6.01823 5.36417
8
 Atoms. Timestep: 820
B 6.11019 5.78403 7.0867
H 6.17413 5.12094 4.97531
H 7.04059 6.48383 5.04765
H 5.35969 6.56809 4.95606
H 5.11367 5.12676 7.43163
H 6.20149 6.9219 7.5818
H 7.15487 5.06509 7.34453
N 6.14056 6.01664 5.34393
8
 Atoms. Timestep: 840
B 6.18893 5.80139 7.10942
H 6.14426 5.15795 4.87314
H 6.88579 6.5948 4.99787
H 5.22709 6.40774 5.00019
H 5.09784 5.16002 7.21395
H 6.1873 6.97009 7.50925
H 7.22798 5.18718 7.18112
N 6.09939 5.9896 5.36651
8
 Atoms. Timestep: 860
B 6.24194 5.81711 7.0431
H 6.19575 5.134 4.92869
H 6.72095 6.69185 4.98764
H 5.10651 6.33715 5.27655
H 5.26726 5.19108 7.39729
H 6.18383 6.91987 7.49831
H 7.25254 5.29057 7.24496
N 6.0616 5.97127 5.37782
8
 Atoms. Timestep: 880
B 6.28121 5.83407 6.97127
H 6.15763 5.15179 4.93596
H 6.56278 6.71769 4.93116
H 5.01811 6.16226 5.28107
H 5.48677 5.13107 7.49556
H 6.225 6.98439 7.38644
H 7.40626 5.32327 7.24996
N 6.02204 5.96491 5.43704
8
 Atoms. Timestep: 900
B 6.36134 5.8666 6.98909
H 6.21893 5.14368 4.9682
H 6.47129 6.73416 5.00306
H 4.95213 6.13061 5.25841
H 5.4862 5.04511 7.40491
H 6.2239 7.05645 7.37107
H 7.59971 5.4825 6.87376
N 5.9534 5.9311 5.45192
8
 Atoms. Timestep: 920
B 6.43601 5.8961 6.99816
H 6.15466 5.09914 4.99115
H 6.39239 6.72563 4.95634
H 4.86022 6.00561 5.31845
H 5.82913 4.9922 7.63523
H 6.2539 6.95671 7.55481
H 7.56997 5.64566 6.88067
N 5.88808 5.92031 5.41226
8
 Atoms. Timestep: 940
B 6.50333 5.90362 7.02048
H 6.06274 5.09426 4.95431
H 6.14845 6.67158 4.74977
H 4.79811 5.99548 5.36949
H 6.12441 4.95773 7.59717
H 6.1896 6.97149 7.4643
H 7.67947 5.79116 6.87273
N 5.84025 5.91045 5.41853
8
 Atoms. Timestep: 960
B 6.58411 5.93153 7.01278
H 5.97124 5.04464 4.98445
H 6.10477 6.69472 4.83234
H 4.76879 5.92049 5.63515
H 6.11411 4.89388 7.42056
H 6.04611 6.9789 7.41441
H 7.84508 6.03939 6.6752
N 5.78883 5.88247 5.42773
8
 Atoms. Timestep: 980
B 6.6231 5.97815 6.93097
H 5.89294 5.04857 4.93006
H 5.93747 6.69713 4.84023
H 4.74575 5.92627 5.725
H 6.38879 4.86404 7.52323
H 6.10229 6.86805 7.62064
H 7.8523 6.15119 6.70819
N 5.7538 5.84771 5.46333
8
 Atoms. Timestep: 1000
B 6.64622 5.98033 6.86899
H 5.90307 5.03927 5.00194
H 5.84586 6.65427 4.84136
H 4.69747 5.78905 5.74313
H 6.72317 4.91606 7.44421
H 6.13785 6.85714 7.5073
H 7.69363 6.26757 6.51779
N 5.73014 5.8483 5.53197
8
 Atoms. Timestep: 1020
B 6.68279 5.99798 6.81226
H 6.02718 5.03137 5.11433
H 5.80313 6.69111 4.9739
H 4.67705 5.71061 5.84222
H 6.75874 4.91146 7.28086
H 6.13664 6.86931 7.47051
H 7.68402 6.45058 6.20187
N 5.69581 5.8246 5.58802
8
 Atoms. Timestep: 1040
B 6.71604 6.05258 6.76354
H 5.91854 5.07242 4.97922
H 5.57188 6.65411 4.9706
H 4.65925 5.56778 5.90919
H 6.92684 4.94249 7.30131
H 6.29823 6.81395 7.66497
H 7.83341 6.47687 6.18825
N 5.66149 5.79226 5.61633
8
 Atoms. Timestep: 1060
B 6.79658 6.0711 6.76575
H 5.88274 5.05904 4.97365
H 5.29198 6.65092 5.06841
H 4.75398 5.42232 6.13547
H 7.06797 4.95835 7.25051
H 6.28734 6.86868 7.53999
H 7.72572 6.51823 6.18057
N 5.61353 5.78155 5.60498
8
 Atoms. Timestep: 1080
B 6.86444 6.0934 6.74707
H 5.87806 5.13431 4.9156
H 5.16402 6.62929 5.14579
H 4.83018 5.29922 6.23517
H 7.05365 5.00246 7.19939
H 6.27234 6.86323 7.44024
H 7.67643 6.59408 6.09714
N 5.57083 5.76113 5.62763
8
 Atoms. Timestep: 1100
B 6.86451 6.12825 6.69902
H 5.79196 5.17733 4.85959
H 5.06907 6.62447 5.30135
H 4.77445 5.17875 6.13454
H 7.17769 5.06242 7.20416
H 6.41639 6.86923 7.59037
H 7.81543 6.62828 5.96796
N 5.55861 5.73297 5.66293
8
 Atoms. Timestep: 1120
B 6.85199 6.12896 6.65764
H 5.88239 5.28759 4.86403
H 5.06759 6.63576 5.41272
H 4.85184 5.10131 6.21916
H 7.31912 5.072 7.09667
H 6.47102 6.94904 7.50895
H 7.67346 6.65758 5.81178
N 5.55252 5.72079 5.70518
8
 Atoms. Timestep: 1140
B 6.85499 6.13071 6.5888
H 5.86485 5.27098 4.91712
H 4.95482 6.57477 5.49281
H 4.91679 5.02004 6.2239
H 7.32931 5.09867 7.02216
H 6.43364 6.90091 7.40023
H 7.46121 6.67904 5.79075
N 5.57198 5.73079 5.76303
8
 Atoms. Timestep: 1160
B 6.85433 6.16252 6.5378
H 5.74909 5.28163 4.8938
H 4.91302 6.53375 5.5508
H 4.96927 5.02477 6.37249
H 7.3955 5.15015 6.94971
H 6.51162 6.81835 7.51071
H 7.58453 6.76944 5.75267
N 5.56089 5.70384 5.78929
8
 Atoms. Timestep: 1180
B 6.90491 6.19117 6.53543
H 5.65508 5.16471 4.93851
H 4.86133 6.51776 5.64592
H 5.05592 5.01511 6.48595
H 7.49655 5.13838 6.7772
H 6.52904 6.8264 7.5512
H 7.60252 6.92136 5.67765
N 5.51634 5.68134 5.78781
8
 Atoms. Timestep: 1200
B 6.97458 6.21049 6.51284
H 5.59003 5.16407 4.9535
H 4.75675 6.41704 5.57392
H 5.00133 5.01655 6.5087
H 7.59544 5.18357 6.68934
H 6.55287 6.76783 7.49975
H 7.35555 6.99881 5.68626
N 5.48749 5.66899 5.81702
8
 Atoms. Timestep: 1220
B 6.97919 6.24467 6.4695
H 5.6632 5.12751 5.01537
H 4.83544 6.48458 5.63787
H 4.95438 4.98239 6.50825
H 7.72139 5.2838 6.57355
H 6.71805 6.67647 7.55557
H 7.32148 6.9964 5.67812
N 5.45807 5.6424 5.84637
8
 Atoms. Timestep: 1240
B 6.96838 6.25429 6.44417
H 5.61542 5.1521 5.01543
H 4.84785 6.46518 5.65149
H 4.93461 5.00704 6.56306
H 7.73061 5.28686 6.332
H 6.79842 6.70847 7.59196
H 7.272 7.14213 5.56196
N 5.46749 5.61993 5.88396
8
 Atoms. Timestep: 1260
B 6.95555 6.24199 6.38602
H 5.549 5.07724 5.09667
H 4.75489 6.38476 5.73171
H 5.04324 4.97531 6.62082
H 7.72482 5.31106 6.2547
H 6.7772 6.64969 7.5416
H 7.059 7.24426 5.57001
N 5.49815 5.63795 5.9217
8
 Atoms. Timestep: 1280
B 6.89929 6.25395 6.31231
H 5.5589 5.11839 5.11417
H 4.75486 6.37106 5.86003
H 5.27183 5.0106 6.77727
H 7.76938 5.43136 6.19726
H 6.82291 6.51654 7.47461
H 7.1274 7.15879 5.63124
N 5.51318 5.63127 5.9615
8
 Atoms. Timestep: 1300
B 6.91293 6.29126 6.27762
H 5.41712 5.10008 5.14805
H 4.71571 6.30876 6.02984
H 5.28995 4.89954 6.74373
H 7.71501 5.36646 6.02373
H 6.87537 6.59907 7.47041
H 7.1004 7.23143 5.56033
N 5.51636 5.60973 5.99386
8
 Atoms. Timestep: 1320
B 6.98223 6.31478 6.24909
H 5.38378 5.22431 5.10945
H 4.66138 6.23598 6.17189
H 5.33748 4.78688 6.71109
H 7.76443 5.40073 5.96454
H 6.99341 6.71961 7.43857
H 6.86715 7.31024 5.39513
N 5.47047 5.57927 6.02911
8
 Atoms. Timestep: 1340
B 7.00299 6.34864 6.19949
H 5.38147 5.33901 5.12072
H 4.66638 6.20712 6.353
H 5.37784 4.65799 6.62086
H 7.87058 5.59282 5.93033
H 7.12732 6.72987 7.32881
H 6.90251 7.22051 5.31997
N 5.4317 5.54818 6.07573
8
 Atoms. Timestep: 1360
B 7.0224 6.3954 6.14671
H 5.16405 5.39837 5.18066
H 4.67239 6.09811 6.54099
H 5.37006 4.58786 6.57031
H 7.78673 5.504 5.81772
H 7.07017 6.80538 7.26247
H 6.88668 7.20202 5.3534
N 5.44359 5.52293 6.11275
8
 Atoms. Timestep: 1380
B 7.00467 6.40283 6.09803
H 5.03054 5.40875 5.26414
H 4.80414 6.03793 6.77611
H 5.60547 4.57824 6.55412
H 7.7595 5.43436 5.78101
H 7.09248 6.83263 7.2737
H 6.77974 7.29156 5.26403
N 5.44857 5.51808 6.1369
8
 Atoms. Timestep: 1400
B 6.94231 6.38094 6.04803
H 4.94927 5.42383 5.36645
H 4.85748 5.93616 6.92546
H 5.80449 4.60379 6.49644
H 7.84964 5.63789 5.7161
H 7.1956 6.76426 7.20287
H 6.78978 7.31401 5.15464
N 5.46993 5.52807 6.17912
8
 Atoms. Timestep: 1420
B 6.88747 6.38238 5.99196
H 4.95701 5.47798 5.44981
H 4.92407 5.85595 7.00951
H 5.72725 4.54304 6.46972
H 7.65418 5.60124 5.55845
H 7.12398 6.78322 7.07636
H 6.64901 7.28836 5.23742
N 5.54157 5.53626 6.22671
8
 Atoms. Timestep: 1440
B 6.83545 6.39416 5.95183
H 5.01245 5.57037 5.48078
H 5.06327 5.96463 7.05391
H 5.76995 4.52256 6.47653
H 7.5752 5.57329 5.34739
H 7.29814 6.82788 7.00962
H 6.41066 7.24797 5.27181
N 5.57498 5.51597 6.26918
8
 Atoms. Timestep: 1460
B 6.8334 6.40386 5.89688
H 4.93914 5.44559 5.57625
H 5.03917 5.88805 7.12615
H 5.79747 4.5245 6.60106
H 7.63064 5.8254 5.09368
H 7.52304 6.75351 6.9037
H 6.26841 7.36278 5.2465
N 5.57169 5.50183 6.3182
8
 Atoms. Timestep: 1480
B 6.85888 6.45704 5.80394
H 4.89798 5.26192 5.6882
H 5.06052 5.91645 7.15667
H 5.91828 4.54086 6.70453
H 7.35743 5.80719 4.9438
H 7.43719 6.62419 6.85156
H 6.29422 7.53744 5.46182
N 5.56862 5.46879 6.37138
8
 Atoms. Timestep: 1500
B 6.83635 6.50835 5.75248
H 4.89591 5.14604 5.7624
H 5.13297 5.97155 7.18489
H 6.08645 4.6393 6.82763
H 7.17413 5.84407 4.8333
H 7.60241 6.47877 6.66793
H 6.34297 7.53782 5.53867
N 5.56677 5.43424 6.41049
8
 Atoms. Timestep: 1520
B 6.807 6.5072 5.71635
H 4.92067 5.01935 5.8684
H 5.03723 5.89298 7.22264
H 6.09048 4.63017 6.88415
H 7.10196 6.01957 4.56797
H 7.83128 6.43497 6.44268
H 6.26567 7.57406 5.58491
N 5.58852 5.43845 6.4558
8
 Atoms. Timestep: 1540
B 6.78377 6.49825 5.64659
H 5.02499 5.07798 5.81096
H 5.05129 5.92043 7.22816
H 6.12137 4.64567 6.97766
H 6.78518 6.05625 4.46972
H 7.79648 6.43951 6.37935
H 6.17076 7.60441 5.8244
N 5.62768 5.43299 6.50107
8
 Atoms. Timestep: 1560
B 6.7209 6.51161 5.62521
H 5.0628 5.06828 5.85034
H 5.13355 6.0271 7.19662
H 6.12481 4.61313 7.01157
H 6.6053 6.09141 4.55504
H 7.79022 6.35702 6.09782
H 6.21957 7.61952 5.81359
N 5.67716 5.42038 6.52937
8
 Atoms. Timestep: 1580
B 6.66269 6.50164 5.62211
H 4.99499 4.99402 6.01832
H 5.19726 5.94226 7.31082
H 6.21738 4.67887 7.07291
H 6.48389 6.15994 4.46098
H 7.83135 6.33289 5.85753
H 6.2535 7.59087 5.79498
N 5.71906 5.43361 6.53244
8
 Atoms. Timestep: 1600
B 6.59756 6.45873 5.58571
H 5.06175 4.93491 6.08259
H 5.32585 5.97414 7.37978
H 6.46778 4.76399 6.89633
H 6.25044 6.19903 4.36339
H 7.82378 6.27723 5.92318
H 6.22994 7.57581 5.96334
N 5.75636 5.46484 6.55387
8
 Atoms. Timestep: 1620
B 6.5286 6.46293 5.55784
H 5.0368 4.96882 6.17907
H 5.44898 5.95047 7.45537
H 6.52989 4.76917 6.90989
H 6.18252 6.19495 4.42447
H 7.71301 6.19326 5.75344
H 6.25273 7.6332 5.93316
N 5.80925 5.46269 6.57202
8
 Atoms. Timestep: 1640
B 6.50401 6.49203 5.52463
H 4.99945 4.99859 6.29193
H 5.56472 5.95597 7.50852
H 6.45936 4.62906 6.91765
H 6.04986 6.18374 4.50309
H 7.65273 6.30253 5.45749
H 6.21986 7.62988 5.7921
N 5.84378 5.44096 6.61083
8
 Atoms. Timestep: 1660
B 6.48321 6.50398 5.45125
H 4.98503 5.13909 6.29907
H 5.73984 5.93275 7.60443
H 6.51535 4.60119 6.81745
H 5.78013 6.13509 4.45619
H 7.73035 6.39235 5.39236
H 6.10026 7.55534 5.89222
N 5.86662 5.42774 6.66809
8
 Atoms. Timestep: 1680
B 6.42534 6.523 5.3956
H 4.95988 5.16568 6.51287
H 5.90731 5.85064 7.69902
H 6.45136 4.507 6.73403
H 5.78806 6.12295 4.35536
H 7.68628 6.35158 5.36236
H 6.05359 7.59523 5.88438
N 5.91158 5.42469 6.70485
8
 Atoms. Timestep: 1700
B 6.3757 6.53805 5.37547
H 4.94843 5.21386 6.7774
H 6.24841 5.83863 7.6689
H 6.46452 4.48787 6.64761
H 5.83962 6.10418 4.43968
H 7.53765 6.37051 5.29824
H 6.04815 7.678 5.67426
N 5.93271 5.40594 6.72338
8
 Atoms. Timestep: 1720
B 6.33654 6.52101 5.36311
H 5.00581 5.27861 6.99171
H 6.51806 5.83217 7.56645
H 6.40394 4.50556 6.43119
H 5.70408 6.00152 4.50725
H 7.52101 6.41894 5.33304
H 5.93473 7.61727 5.69875
N 5.96285 5.42187 6.73132
8
 Atoms. Timestep: 1740
B 6.26729 6.48318 5.3814
H 5.09057 5.42224 7.10184
H 6.70154 5.64567 7.55652
H 6.25389 4.47702 6.39893
H 5.62917 5.91902 4.39683
H 7.54784 6.46326 5.26594
H 5.79893 7.53428 5.78597
N 6.02097 5.4648 6.7188
8
 Atoms. Timestep: 1760
B 6.19962 6.43385 5.4414
H 5.19352 5.68994 7.10384
H 6.83724 5.64453 7.45912
H 6.08337 4.4446 6.44449
H 5.62142 5.90874 4.46625
H 7.39302 6.55947 5.11791
H 5.71685 7.51615 5.70954
N 6.08578 5.48129 6.68715
8
 Atoms. Timestep: 1780
B 6.16747 6.41446 5.42733
H 5.31793 5.75761 7.22387
H 6.99278 5.6497 7.3026
H 6.02785 4.45958 6.48231
H 5.48046 5.84621 4.69351
H 7.27831 6.58117 5.12577
H 5.61629 7.45509 5.78263
N 6.12 5.49726 6.6759
8
 Atoms. Timestep: 1800
B 6.10613 6.42769 5.37435
H 5.44169 5.66584 7.41302
H 7.0968 5.57356 7.24221
H 6.1029 4.4696 6.46777
H 5.35057 5.8429 4.56742
H 7.27627 6.52845 4.99114
H 5.62786 7.47547 5.8141
N 6.15428 5.50088 6.72499
8
 Atoms. Timestep: 1820
B 6.03212 6.45791 5.34572
H 5.50294 5.63586 7.46698
H 7.16785 5.66276 7.19945
H 6.12316 4.47017 6.45756
H 5.2544 5.86796 4.50298
H 7.21256 6.4279 4.84792
H 5.71735 7.58712 5.65246
N 6.20551 5.47071 6.77338
8
 Atoms. Timestep: 1840
B 5.9985 6.47938 5.28914
H 5.55373 5.62881 7.49225
H 7.20386 5.68009 7.19037
H 6.25851 4.43711 6.56249
H 5.07781 5.87353 4.82856
H 7.09612 6.34153 4.82821
H 5.71884 7.57467 5.69332
N 6.23639 5.46243 6.78361
8
 Atoms. Timestep: 1860
B 5.96385 6.45049 5.28685
H 5.57264 5.61341 7.47817
H 7.1982 5.75646 7.24346
H 6.2889 4.45034 6.58645
H 4.97362 5.95329 4.90123
H 6.92329 6.32723 4.60924
H 5.7776 7.5481 5.81424
N 6.2756 5.47664 6.78269
8
 Atoms. Timestep: 1880
B 5.91976 6.40888 5.34677
H 5.54207 5.67035 7.36605
H 7.22224 5.80587 7.22372
H 6.39621 4.48284 6.55667
H 4.8216 5.99307 4.87586
H 6.79692 6.26749 4.4656
H 5.91971 7.57567 5.78608
N 6.31215 5.49828 6.76209
8
 Atoms. Timestep: 1900
B 5.89946 6.38353 5.39577
H 5.62069 5.60212 7.401
H 7.20146 5.91836 7.17088
H 6.44655 4.50743 6.56645
H 4.7113 5.98552 5.20671
H 6.79232 6.05602 4.57156
H 5.93122 7.54106 5.72837
N 6.32746 5.53103 6.6978
8
 Atoms. Timestep: 1920
B 5.88185 6.33533 5.44723
H 5.7006 5.55938 7.44464
H 7.26431 5.93114 7.0204
H 6.5569 4.5875 6.41899
H 4.76309 6.01513 5.25593
H 6.57002 5.98906 4.53483
H 5.96619 7.5129 5.67815
N 6.33266 5.56932 6.67896
8
 Atoms. Timestep: 1940
B 5.8169 6.33664 5.42182
H 5.78225 5.55769 7.49159
H 7.29887 5.97223 7.0221
H 6.4989 4.57614 6.41087
H 4.66291 6.03189 5.21867
H 6.47281 5.97248 4.46683
H 6.0143 7.55412 5.64636
N 6.38926 5.56334 6.70545
8
 Atoms. Timestep: 1960
B 5.75861 6.37532 5.36254
H 5.84962 5.64561 7.52328
H 7.3806 5.89158 6.9898
H 6.59706 4.52371 6.60362
H 4.53906 6.02051 5.41681
H 6.508 5.92738 4.46183
H 5.91875 7.57251 5.62972
N 6.42972 5.53945 6.72485
8
 Atoms. Timestep: 1980
B 5.72337 6.38591 5.33971
H 5.92365 5.74019 7.54909
H 7.41567 5.93959 6.89821
H 6.50007 4.50251 6.63528
H 4.56778 5.98298 5.41412
H 6.30455 5.99568 4.33526
H 5.85765 7.52727 5.61038
N 6.47289 5.52365 6.75551
8
 Atoms. Timestep: 2000
B 5.68303 6.36074 5.345
H 6.01519 5.78458 7.58265
H 7.50693 5.79872 6.84221
H 6.48331 4.5265 6.63724
H 4.57591 5.96982 5.39404
H 6.23403 6.03336 4.34467
H 5.87243 7.51682 5.64775
N 6.49555 5.54724 6.75099
8
 Atoms. Timestep: 2020
B 5.66825 6.33439 5.38522
H 6.14002 5.83337 7.59132
H 7.5268 5.78716 6.76309
H 6.38859 4.5483 6.65872
H 4.51446 5.93728 5.51377
H 6.35496 5.93485 4.45325
H 5.79338 7.56875 5.65737
N 6.50478 5.569 6.70646
8
 Atoms. Timestep: 2040
B 5.69208 6.30809 5.46754
H 6.20116 5.92461 7.55883
H 7.5163 5.77465 6.52598
H 6.37031 4.57915 6.61403
H 4.52121 5.83395 5.52595
H 6.25984 5.88631 4.43131
H 5.72346 7.53069 5.57102
N 6.49539 5.59503 6.67228
8
 Atoms. Timestep: 2060
B 5.68756 6.25902 5.51153
H 6.32966 5.94651 7.55506
H 7.52353 5.77813 6.50649
H 6.3461 4.6119 6.66895
H 4.55744 5.84015 5.59217
H 6.15362 5.93028 4.44692
H 5.7717 7.42269 5.64366
N 6.49247 5.63286 6.62505
8
 Atoms. Timestep: 2080
B 5.61876 6.26108 5.47884
H 6.28546 6.05089 7.49486
H 7.56388 5.76177 6.46052
H 6.40704 4.59856 6.72879
H 4.50441 5.90346 5.72869
H 6.14972 5.88191 4.45884
H 5.75494 7.48219 5.70923
N 6.54673 5.62062 6.63829
8
 Atoms. Timestep: 2100
B 5.56797 6.28926 5.45414
H 6.37573 6.05715 7.51888
H 7.59741 5.8296 6.47242
H 6.49374 4.57728 6.82228
H 4.42565 5.87991 5.75642
H 5.93053 5.84131 4.34898
H 5.69323 7.55533 5.55019
N 6.59656 5.59446 6.66532
8
 Atoms. Timestep: 2120
B 5.50492 6.29732 5.42437
H 6.47064 5.977 7.59241
H 7.64148 5.78218 6.43561
H 6.56173 4.57429 6.76879
H 4.41379 5.90254 5.85524
H 5.81773 5.78154 4.36475
H 5.74356 7.45806 5.50541
N 6.63572 5.60717 6.6845
8
 Atoms. Timestep: 2140
B 5.45716 6.27769 5.43498
H 6.51738 5.96267 7.59153
H 7.65398 5.85149 6.38213
H 6.50933 4.59983 6.64022
H 4.41924 6.0296 5.95468
H 5.8414 5.6606 4.49132
H 5.74066 7.40895 5.48331
N 6.67021 5.61964 6.67482
8
 Atoms. Timestep: 2160
B 5.47267 6.25155 5.51405
H 6.55014 5.94106 7.57044
H 7.65653 5.88065 6.32127
H 6.61346 4.605 6.64655
H 4.37782 6.01883 5.98378
H 5.67645 5.53321 4.52147
H 5.70836 7.49328 5.28708
N 6.66533 5.64274 6.62901
8
 Atoms. Timestep: 2180
B 5.50949 6.20007 5.58869
H 6.56211 6.02673 7.49597
H 7.60288 5.9976 6.23058
H 6.67776 4.63236 6.6221
H 4.43908 6.0252 6.22104
H 5.51435 5.48064 4.5728
H 5.77718 7.41375 5.27179
N 6.6376 5.67501 6.56545
8
 Atoms. Timestep: 2200
B 5.49525 6.14526 5.64102
H 6.51821 6.11498 7.40799
H 7.59206 6.02631 6.11046
H 6.67557 4.6719 6.64075
H 4.53906 6.16819 6.38997
H 5.46399 5.43452 4.68099
H 5.79118 7.24254 5.44491
N 6.6481 5.71142 6.50645
8
 Atoms. Timestep: 2220
B 5.40249 6.15633 5.6491
H 6.73465 6.20456 7.37951
H 7.65803 5.95393 6.04354
H 6.80366 4.6739 6.74678
H 4.43841 6.0883 6.37133
H 5.2751 5.40041 4.70515
H 5.62793 7.31609 5.28673
N 6.72268 5.7044 6.51037
8
 Atoms. Timestep: 2240
B 5.29769 6.1719 5.63865
H 6.97197 6.24675 7.35473
H 7.61905 5.84985 5.83944
H 6.76084 4.69025 6.81087
H 4.4307 5.96962 6.49323
H 5.23849 5.30812 4.73183
H 5.47964 7.37512 5.14927
N 6.80617 5.70649 6.52941
8
 Atoms. Timestep: 2260
B 5.212 6.14749 5.63822
H 7.16902 6.30499 7.27282
H 7.62466 5.68672 5.75712
H 6.70824 4.73696 6.82741
H 4.46646 6.06305 6.59678
H 5.30711 5.26415 4.82459
H 5.41117 7.29789 5.32217
N 6.859 5.73146 6.51391
8
 Atoms. Timestep: 2280
B 5.22258 6.126 5.7088
H 7.24611 6.38406 7.14471
H 7.65323 5.59533 5.73125
H 6.74147 4.84786 6.9836
H 4.392 5.98204 6.57565
H 5.12824 5.28844 4.8562
H 5.34201 7.1831 5.30189
N 6.86395 5.75325 6.46001
8
 Atoms. Timestep: 2300
B 5.27555 6.09239 5.78482
H 7.11449 6.59845 6.89295
H 7.52474 5.54585 5.6055
H 6.81203 4.92886 7.04891
H 4.51645 5.90654 6.73694
H 5.06211 5.24943 4.89753
H 5.34194 7.24411 5.26992
N 6.83247 5.76543 6.41147
8
 Atoms. Timestep: 2320
B 5.33429 6.02983 5.84925
H 7.13 6.65142 6.72569
H 7.46316 5.55177 5.53455
H 6.90594 5.10038 7.12544
H 4.69847 6.03907 6.89794
H 5.10838 5.15954 4.99887
H 5.3638 7.27962 5.46075
N 6.76587 5.79165 6.34095
8
 Atoms. Timestep: 2340
B 5.31741 6.01198 5.91843
H 7.1979 6.69029 6.63706
H 7.40771 5.45779 5.48509
H 6.9177 5.07562 7.03737
H 4.61989 5.99239 6.90743
H 4.94871 5.16213 5.16575
H 5.26709 7.04439 5.35707
N 6.80109 5.83108 6.29855
8
 Atoms. Timestep: 2360
B 5.20245 6.02216 5.93972
H 7.34825 6.6615 6.61408
H 7.36697 5.55448 5.36151
H 6.97229 5.11108 7.03962
H 4.6587 6.00858 7.04492
H 4.94268 4.98475 5.33003
H 5.10192 6.965 5.23234
N 6.8875 5.83302 6.27978
8
 Atoms. Timestep: 2380
B 5.10571 5.99346 5.96115
H 7.41047 6.66984 6.59404
H 7.42479 5.52593 5.35375
H 7.17548 5.04536 6.89555
H 4.76752 6.24634 7.1215
H 4.97577 4.83624 5.52395
H 4.97412 7.02982 5.20509
N 6.93803 5.8503 6.25815
8
 Atoms. Timestep: 2400
B 5.09732 5.97126 6.02347
H 7.36451 6.70574 6.57838
H 7.42725 5.69587 5.26225
H 7.15771 5.10726 6.9137
H 4.71638 6.30888 7.10886
H 4.7228 4.87454 5.67224
H 4.96689 6.81786 5.10184
N 6.97112 5.85624 6.21412
8
 Atoms. Timestep: 2420
B 5.14131 5.95657 6.06574
H 7.20892 6.75522 6.55872
H 7.41715 5.67914 5.23984
H 7.24768 5.09348 6.78286
H 4.80265 6.38082 7.14125
H 4.72374 4.85456 5.87687
H 5.06011 6.64526 5.14275
N 6.9297 5.87483 6.17401
8
 Atoms. Timestep: 2440
B 5.22189 5.93187 6.09819
H 7.20717 6.75519 6.48122
H 7.28765 5.82145 5.16779
H 7.29193 5.17554 6.78232
H 4.98226 6.56287 7.15483
H 4.90002 4.73506 6.04476
H 4.97036 6.66183 5.14859
N 6.85474 5.87221 6.14632
8
 Atoms. Timestep: 2460
B 5.31769 5.92091 6.15341
H 7.19324 6.78026 6.42623
H 7.17044 5.6596 5.13898
H 7.19506 5.13049 6.68685
H 4.94087 6.49494 7.17973
H 4.86921 4.75629 6.16167
H 4.82513 6.48743 5.10172
N 6.81266 5.90945 6.10974
8
 Atoms. Timestep: 2480
B 5.23859 5.90597 6.20348
H 7.34526 6.77239 6.26477
H 7.16084 5.67532 5.08799
H 7.20029 5.23087 6.7598
H 4.95782 6.45821 7.22266
H 4.97916 4.72717 6.26077
H 4.88279 6.42381 5.15792
N 6.84995 5.92249 6.06692
8
 Atoms. Timestep: 2500
B 5.15449 5.88956 6.23129
H 7.28917 6.85233 6.12523
H 7.15596 5.50784 5.10844
H 7.40913 5.30591 6.70445
H 4.98463 6.53011 7.25219
H 5.00658 4.69632 6.29186
H 4.72435 6.45022 5.30253
N 6.91171 5.93123 6.04327
8
 Atoms. Timestep: 2520
B 5.12503 5.87713 6.27454
H 7.21718 6.89119 5.93751
H 7.1523 5.51232 5.06791
H 7.48173 5.49029 6.78034
H 4.99043 6.48792 7.3609
H 4.81019 4.66942 6.32436
H 4.61984 6.43277 5.28631
N 6.95573 5.93073 6.01186
8
 Atoms. Timestep: 2540
B 5.12575 5.85925 6.32327
H 7.16274 6.90686 5.83576
H 7.26576 5.36579 5.15385
H 7.51485 5.60896 6.75099
H 5.06013 6.44092 7.38785
H 4.84265 4.66783 6.37121
H 4.77256 6.48366 5.28209
N 6.93039 5.94523 5.97252
8
 Atoms. Timestep: 2560
B 5.19051 5.85079 6.33995
H 7.10027 6.87507 5.65894
H 7.1792 5.33141 5.15235
H 7.44091 5.73837 6.79965
H 5.111 6.44985 7.3546
H 4.97733 4.68751 6.3658
H 4.6876 6.484 5.44571
N 6.88917 5.94517 5.95999
8
 Atoms. Timestep: 2580
B 5.28989 5.86192 6.33411
H 7.07391 6.85714 5.58355
H 7.06088 5.19121 5.26207
H 7.43037 5.79263 6.75921
H 5.17997 6.3895 7.45606
H 5.03503 4.65937 6.40578
H 4.56876 6.35271 5.52436
N 6.82304 5.9597 5.94922
8
 Atoms. Timestep: 2600
B 5.33563 5.84794 6.37285
H 7.08091 6.80124 5.4596
H 7.01975 5.21829 5.22864