ITEM: TIMESTEP
0
ITEM: NUMBER OF ATOMS
8
ITEM: BOX BOUNDS xy xz yz pp pp pp
0.0000000000000000e+00 1.2000000000000000e+01 0.0000000000000000e+00
0.0000000000000000e+00 1.2000000000000000e+01 0.0000000000000000e+00
0.0000000000000000e+00 1.2000000000000000e+01 0.0000000000000000e+00
ITEM: ATOMS id type x y z
1 1 5.74046 6.33007 5.41224
5 2 5.30281 7.3409 5.86648
6 2 4.86235 5.64183 4.93919
7 2 6.6291 6.51884 4.57517
2 2 7.13765 6.17173 7.19603
3 2 6.99131 4.6591 6.48592
4 2 5.76199 5.3298 7.42483
8 3 6.45143 5.56858 6.69633
ITEM: TIMESTEP
100
ITEM: NUMBER OF ATOMS
8
ITEM: BOX BOUNDS xy xz yz pp pp pp
0.0000000000000000e+00 1.2000000000000000e+01 0.0000000000000000e+00
0.0000000000000000e+00 1.2000000000000000e+01 0.0000000000000000e+00
0.0000000000000000e+00 1.2000000000000000e+01 0.0000000000000000e+00
ITEM: ATOMS id type x y z
1 1 5.53452 6.24841 5.49841
5 2 5.23254 7.35844 5.99983
6 2 4.60728 5.43992 5.47356
7 2 6.10677 6.23867 4.46235
2 2 7.49161 6.21485 6.63503
3 2 6.95015 4.61856 6.46555
4 2 6.2848 5.61806 7.60644
8 3 6.61116 5.64398 6.61877
ITEM: TIMESTEP
200
ITEM: NUMBER OF ATOMS
8
ITEM: BOX BOUNDS xy xz yz pp pp pp
0.0000000000000000e+00 1.2000000000000000e+01 0.0000000000000000e+00
0.0000000000000000e+00 1.2000000000000000e+01 0.0000000000000000e+00
0.0000000000000000e+00 1.2000000000000000e+01 0.0000000000000000e+00
ITEM: ATOMS id type x y z
1 1 5.30834 6.0976 5.72665
5 2 5.2763 7.33148 5.81391
6 2 4.51509 5.47447 6.442
7 2 5.62814 5.77273 4.52535
2 2 7.56729 6.2857 6.05716
3 2 7.10873 4.72996 6.34419
4 2 6.82005 5.95473 7.45161
8 3 6.76832 5.756 6.44331
ITEM: TIMESTEP
300
ITEM: NUMBER OF ATOMS
8
ITEM: BOX BOUNDS xy xz yz pp pp pp
0.0000000000000000e+00 1.2000000000000000e+01 0.0000000000000000e+00
0.0000000000000000e+00 1.2000000000000000e+01 0.0000000000000000e+00
0.0000000000000000e+00 1.2000000000000000e+01 0.0000000000000000e+00
ITEM: ATOMS id type x y z
1 1 5.25814 5.94493 6.05895
5 2 4.93842 7.02787 5.76366
7 2 4.9513 5.17042 5.18472
2 2 7.24806 6.18723 5.34062
8 3 6.84202 5.88929 6.18355
3 2 7.16766 4.89602 6.37379
4 2 7.29868 6.4448 6.89428
6 2 4.82186 5.6054 7.12502
ITEM: TIMESTEP
400
ITEM: NUMBER OF ATOMS
8
ITEM: BOX BOUNDS xy xz yz pp pp pp
0.0000000000000000e+00 1.2000000000000000e+01 0.0000000000000000e+00
0.0000000000000000e+00 1.2000000000000000e+01 0.0000000000000000e+00
0.0000000000000000e+00 1.2000000000000000e+01 0.0000000000000000e+00
ITEM: ATOMS id type x y z
2 2 6.8895 5.85258 4.96123
5 2 4.58729 6.82281 5.89583
7 2 4.9148 4.77473 5.9136
8 3 6.81684 5.97772 5.92818
3 2 7.37318 5.19354 6.3841
4 2 7.25669 6.8553 6.21514
6 2 5.16513 5.73242 7.60682
1 1 5.31296 5.8396 6.3627
ITEM: TIMESTEP
500
ITEM: NUMBER OF ATOMS
8
ITEM: BOX BOUNDS xy xz yz pp pp pp
0.0000000000000000e+00 1.2000000000000000e+01 0.0000000000000000e+00
0.0000000000000000e+00 1.2000000000000000e+01 0.0000000000000000e+00
0.0000000000000000e+00 1.2000000000000000e+01 0.0000000000000000e+00
ITEM: ATOMS id type x y z
2 2 6.52758 5.75065 4.79419
5 2 4.52692 6.34673 6.08074
8 3 6.72516 6.0328 5.72603
1 1 5.39584 5.76186 6.62317
3 2 7.4765 5.37505 6.12537
4 2 7.04825 7.02916 5.71898
6 2 5.64828 6.26131 7.68538
7 2 5.34737 4.53694 6.58908
ITEM: TIMESTEP
600
ITEM: NUMBER OF ATOMS
8
ITEM: BOX BOUNDS xy xz yz pp pp pp
0.0000000000000000e+00 1.2000000000000000e+01 0.0000000000000000e+00
0.0000000000000000e+00 1.2000000000000000e+01 0.0000000000000000e+00
0.0000000000000000e+00 1.2000000000000000e+01 0.0000000000000000e+00
ITEM: ATOMS id type x y z
2 2 6.37413 5.40191 4.80261
8 3 6.5892 6.05289 5.53775
3 2 7.59647 5.91232 5.92649
4 2 6.51886 7.05591 5.19142
1 1 5.56107 5.73716 6.85574
7 2 5.76589 4.50832 6.98871
6 2 6.01235 6.42523 7.77316
5 2 4.42622 5.98161 6.43553
ITEM: TIMESTEP
700
ITEM: NUMBER OF ATOMS
8
ITEM: BOX BOUNDS xy xz yz pp pp pp
0.0000000000000000e+00 1.2000000000000000e+01 0.0000000000000000e+00
0.0000000000000000e+00 1.2000000000000000e+01 0.0000000000000000e+00
0.0000000000000000e+00 1.2000000000000000e+01 0.0000000000000000e+00
ITEM: ATOMS id type x y z
2 2 6.22687 5.25435 4.8443
8 3 6.40428 6.05554 5.40521
3 2 7.46974 6.12684 5.53958
4 2 6.00401 6.94112 5.00174
1 1 5.79976 5.73544 7.00413
7 2 6.34777 4.73909 7.36052
6 2 6.10386 6.70007 7.7125
5 2 4.55262 5.50532 6.91234
ITEM: TIMESTEP
800
ITEM: NUMBER OF ATOMS
8
ITEM: BOX BOUNDS xy xz yz pp pp pp
0.0000000000000000e+00 1.2000000000000000e+01 0.0000000000000000e+00
0.0000000000000000e+00 1.2000000000000000e+01 0.0000000000000000e+00
0.0000000000000000e+00 1.2000000000000000e+01 0.0000000000000000e+00
ITEM: ATOMS id type x y z
2 2 6.07897 5.15369 4.93526
8 3 6.18974 6.01823 5.36417
3 2 7.14033 6.42823 5.18074
4 2 5.45211 6.63657 4.97848
1 1 6.06045 5.76836 7.07125
7 2 7.06058 5.08967 7.28036
6 2 6.1315 6.86474 7.54587
5 2 5.02947 5.26075 7.29977
ITEM: TIMESTEP
900
ITEM: NUMBER OF ATOMS
8
ITEM: BOX BOUNDS xy xz yz pp pp pp
0.0000000000000000e+00 1.2000000000000000e+01 0.0000000000000000e+00
0.0000000000000000e+00 1.2000000000000000e+01 0.0000000000000000e+00
0.0000000000000000e+00 1.2000000000000000e+01 0.0000000000000000e+00
ITEM: ATOMS id type x y z
2 2 6.21893 5.14368 4.9682
8 3 5.9534 5.9311 5.45192
3 2 6.47129 6.73416 5.00306
4 2 4.95213 6.13061 5.25841
1 1 6.36134 5.8666 6.98909
7 2 7.59971 5.4825 6.87376
6 2 6.2239 7.05645 7.37107
5 2 5.4862 5.04511 7.40491
ITEM: TIMESTEP
1000
ITEM: NUMBER OF ATOMS
8
ITEM: BOX BOUNDS xy xz yz pp pp pp
0.0000000000000000e+00 1.2000000000000000e+01 0.0000000000000000e+00
0.0000000000000000e+00 1.2000000000000000e+01 0.0000000000000000e+00
0.0000000000000000e+00 1.2000000000000000e+01 0.0000000000000000e+00
ITEM: ATOMS id type x y z
2 2 5.90307 5.03927 5.00194
8 3 5.73014 5.8483 5.53197
3 2 5.84586 6.65427 4.84136
4 2 4.69747 5.78905 5.74313
1 1 6.64622 5.98033 6.86899
7 2 7.69363 6.26757 6.51779
6 2 6.13785 6.85714 7.5073
5 2 6.72317 4.91606 7.44421
ITEM: TIMESTEP
1100
ITEM: NUMBER OF ATOMS
8
ITEM: BOX BOUNDS xy xz yz pp pp pp
0.0000000000000000e+00 1.2000000000000000e+01 0.0000000000000000e+00
0.0000000000000000e+00 1.2000000000000000e+01 0.0000000000000000e+00
0.0000000000000000e+00 1.2000000000000000e+01 0.0000000000000000e+00
ITEM: ATOMS id type x y z
2 2 5.79196 5.17733 4.85959
8 3 5.55861 5.73297 5.66293
3 2 5.06907 6.62447 5.30135
1 1 6.86451 6.12825 6.69902
7 2 7.81543 6.62828 5.96796
6 2 6.41639 6.86923 7.59037
5 2 7.17769 5.06242 7.20416
4 2 4.77445 5.17875 6.13454
ITEM: TIMESTEP
1200
ITEM: NUMBER OF ATOMS
8
ITEM: BOX BOUNDS xy xz yz pp pp pp
0.0000000000000000e+00 1.2000000000000000e+01 0.0000000000000000e+00
0.0000000000000000e+00 1.2000000000000000e+01 0.0000000000000000e+00
0.0000000000000000e+00 1.2000000000000000e+01 0.0000000000000000e+00
ITEM: ATOMS id type x y z
2 2 5.59003 5.16407 4.9535
8 3 5.48749 5.66899 5.81702
3 2 4.75675 6.41704 5.57392
1 1 6.97458 6.21049 6.51284
7 2 7.35555 6.99881 5.68626
6 2 6.55287 6.76783 7.49975
5 2 7.59544 5.18357 6.68934
4 2 5.00133 5.01655 6.5087
ITEM: TIMESTEP
1300
ITEM: NUMBER OF ATOMS
8
ITEM: BOX BOUNDS xy xz yz pp pp pp
0.0000000000000000e+00 1.2000000000000000e+01 0.0000000000000000e+00
0.0000000000000000e+00 1.2000000000000000e+01 0.0000000000000000e+00
0.0000000000000000e+00 1.2000000000000000e+01 0.0000000000000000e+00
ITEM: ATOMS id type x y z
2 2 5.41712 5.10008 5.14805
8 3 5.51636 5.60973 5.99386
3 2 4.71571 6.30876 6.02984
7 2 7.1004 7.23143 5.56033
1 1 6.91293 6.29126 6.27762
4 2 5.28995 4.89954 6.74373
6 2 6.87537 6.59907 7.47041
5 2 7.71501 5.36646 6.02373
ITEM: TIMESTEP
1400
ITEM: NUMBER OF ATOMS
8
ITEM: BOX BOUNDS xy xz yz pp pp pp
0.0000000000000000e+00 1.2000000000000000e+01 0.0000000000000000e+00
0.0000000000000000e+00 1.2000000000000000e+01 0.0000000000000000e+00
0.0000000000000000e+00 1.2000000000000000e+01 0.0000000000000000e+00
ITEM: ATOMS id type x y z
2 2 4.94927 5.42383 5.36645
7 2 6.78978 7.31401 5.15464
5 2 7.84964 5.63789 5.7161
1 1 6.94231 6.38094 6.04803
4 2 5.80449 4.60379 6.49644
6 2 7.1956 6.76426 7.20287
8 3 5.46993 5.52807 6.17912
3 2 4.85748 5.93616 6.92546
ITEM: TIMESTEP
1500
ITEM: NUMBER OF ATOMS
8
ITEM: BOX BOUNDS xy xz yz pp pp pp
0.0000000000000000e+00 1.2000000000000000e+01 0.0000000000000000e+00
0.0000000000000000e+00 1.2000000000000000e+01 0.0000000000000000e+00
0.0000000000000000e+00 1.2000000000000000e+01 0.0000000000000000e+00
ITEM: ATOMS id type x y z
2 2 4.89591 5.14604 5.7624
7 2 6.34297 7.53782 5.53867
5 2 7.17413 5.84407 4.8333
1 1 6.83635 6.50835 5.75248
3 2 5.13297 5.97155 7.18489
4 2 6.08645 4.6393 6.82763
6 2 7.60241 6.47877 6.66793
8 3 5.56677 5.43424 6.41049
ITEM: TIMESTEP
1600
ITEM: NUMBER OF ATOMS
8
ITEM: BOX BOUNDS xy xz yz pp pp pp
0.0000000000000000e+00 1.2000000000000000e+01 0.0000000000000000e+00
0.0000000000000000e+00 1.2000000000000000e+01 0.0000000000000000e+00
0.0000000000000000e+00 1.2000000000000000e+01 0.0000000000000000e+00
ITEM: ATOMS id type x y z
2 2 5.06175 4.93491 6.08259
7 2 6.22994 7.57581 5.96334
5 2 6.25044 6.19903 4.36339
1 1 6.59756 6.45873 5.58571
6 2 7.82378 6.27723 5.92318
3 2 5.32585 5.97414 7.37978
4 2 6.46778 4.76399 6.89633
8 3 5.75636 5.46484 6.55387
ITEM: TIMESTEP
1700
ITEM: NUMBER OF ATOMS
8
ITEM: BOX BOUNDS xy xz yz pp pp pp
0.0000000000000000e+00 1.2000000000000000e+01 0.0000000000000000e+00
0.0000000000000000e+00 1.2000000000000000e+01 0.0000000000000000e+00
0.0000000000000000e+00 1.2000000000000000e+01 0.0000000000000000e+00
ITEM: ATOMS id type x y z
6 2 7.53765 6.37051 5.29824
7 2 6.04815 7.678 5.67426
5 2 5.83962 6.10418 4.43968
1 1 6.3757 6.53805 5.37547
3 2 6.24841 5.83863 7.6689
4 2 6.46452 4.48787 6.64761
8 3 5.93271 5.40594 6.72338
2 2 4.94843 5.21386 6.7774
ITEM: TIMESTEP
1800
ITEM: NUMBER OF ATOMS
8
ITEM: BOX BOUNDS xy xz yz pp pp pp
0.0000000000000000e+00 1.2000000000000000e+01 0.0000000000000000e+00
0.0000000000000000e+00 1.2000000000000000e+01 0.0000000000000000e+00
0.0000000000000000e+00 1.2000000000000000e+01 0.0000000000000000e+00
ITEM: ATOMS id type x y z
6 2 7.27627 6.52845 4.99114
7 2 5.62786 7.47547 5.8141
5 2 5.35057 5.8429 4.56742
1 1 6.10613 6.42769 5.37435
3 2 7.0968 5.57356 7.24221
4 2 6.1029 4.4696 6.46777
8 3 6.15428 5.50088 6.72499
2 2 5.44169 5.66584 7.41302
ITEM: TIMESTEP
1900
ITEM: NUMBER OF ATOMS
8
ITEM: BOX BOUNDS xy xz yz pp pp pp
0.0000000000000000e+00 1.2000000000000000e+01 0.0000000000000000e+00
0.0000000000000000e+00 1.2000000000000000e+01 0.0000000000000000e+00
0.0000000000000000e+00 1.2000000000000000e+01 0.0000000000000000e+00
ITEM: ATOMS id type x y z
6 2 6.79232 6.05602 4.57156
7 2 5.93122 7.54106 5.72837
5 2 4.7113 5.98552 5.20671
1 1 5.89946 6.38353 5.39577
3 2 7.20146 5.91836 7.17088
4 2 6.44655 4.50743 6.56645
8 3 6.32746 5.53103 6.6978
2 2 5.62069 5.60212 7.401
ITEM: TIMESTEP
2000
ITEM: NUMBER OF ATOMS
8
ITEM: BOX BOUNDS xy xz yz pp pp pp
0.0000000000000000e+00 1.2000000000000000e+01 0.0000000000000000e+00
0.0000000000000000e+00 1.2000000000000000e+01 0.0000000000000000e+00
0.0000000000000000e+00 1.2000000000000000e+01 0.0000000000000000e+00
ITEM: ATOMS id type x y z
6 2 6.23403 6.03336 4.34467
7 2 5.87243 7.51682 5.64775
5 2 4.57591 5.96982 5.39404
1 1 5.68303 6.36074 5.345
3 2 7.50693 5.79872 6.84221
4 2 6.48331 4.5265 6.63724
8 3 6.49555 5.54724 6.75099
2 2 6.01519 5.78458 7.58265
ITEM: TIMESTEP
2100
ITEM: NUMBER OF ATOMS
8
ITEM: BOX BOUNDS xy xz yz pp pp pp
0.0000000000000000e+00 1.2000000000000000e+01 0.0000000000000000e+00
0.0000000000000000e+00 1.2000000000000000e+01 0.0000000000000000e+00
0.0000000000000000e+00 1.2000000000000000e+01 0.0000000000000000e+00
ITEM: ATOMS id type x y z
6 2 5.93053 5.84131 4.34898
7 2 5.69323 7.55533 5.55019
5 2 4.42565 5.87991 5.75642
1 1 5.56797 6.28926 5.45414
3 2 7.59741 5.8296 6.47242
4 2 6.49374 4.57728 6.82228
8 3 6.59656 5.59446 6.66532
2 2 6.37573 6.05715 7.51888
ITEM: TIMESTEP
2200
ITEM: NUMBER OF ATOMS
8
ITEM: BOX BOUNDS xy xz yz pp pp pp
0.0000000000000000e+00 1.2000000000000000e+01 0.0000000000000000e+00
0.0000000000000000e+00 1.2000000000000000e+01 0.0000000000000000e+00
0.0000000000000000e+00 1.2000000000000000e+01 0.0000000000000000e+00
ITEM: ATOMS id type x y z
6 2 5.46399 5.43452 4.68099
7 2 5.79118 7.24254 5.44491
5 2 4.53906 6.16819 6.38997
1 1 5.49525 6.14526 5.64102
3 2 7.59206 6.02631 6.11046
4 2 6.67557 4.6719 6.64075
8 3 6.6481 5.71142 6.50645
2 2 6.51821 6.11498 7.40799
ITEM: TIMESTEP
2300
ITEM: NUMBER OF ATOMS
8
ITEM: BOX BOUNDS xy xz yz pp pp pp
0.0000000000000000e+00 1.2000000000000000e+01 0.0000000000000000e+00
0.0000000000000000e+00 1.2000000000000000e+01 0.0000000000000000e+00
0.0000000000000000e+00 1.2000000000000000e+01 0.0000000000000000e+00
ITEM: ATOMS id type x y z
6 2 5.06211 5.24943 4.89753
7 2 5.34194 7.24411 5.26992
1 1 5.27555 6.09239 5.78482
3 2 7.52474 5.54585 5.6055
2 2 7.11449 6.59845 6.89295
4 2 6.81203 4.92886 7.04891
8 3 6.83247 5.76543 6.41147
5 2 4.51645 5.90654 6.73694
ITEM: TIMESTEP
2400
ITEM: NUMBER OF ATOMS
8
ITEM: BOX BOUNDS xy xz yz pp pp pp
0.0000000000000000e+00 1.2000000000000000e+01 0.0000000000000000e+00
0.0000000000000000e+00 1.2000000000000000e+01 0.0000000000000000e+00
0.0000000000000000e+00 1.2000000000000000e+01 0.0000000000000000e+00
ITEM: ATOMS id type x y z
6 2 4.7228 4.87454 5.67224
7 2 4.96689 6.81786 5.10184
1 1 5.09732 5.97126 6.02347
3 2 7.42725 5.69587 5.26225
2 2 7.36451 6.70574 6.57838
4 2 7.15771 5.10726 6.9137
8 3 6.97112 5.85624 6.21412
5 2 4.71638 6.30888 7.10886
ITEM: TIMESTEP
2500
ITEM: NUMBER OF ATOMS
8
ITEM: BOX BOUNDS xy xz yz pp pp pp
0.0000000000000000e+00 1.2000000000000000e+01 0.0000000000000000e+00
0.0000000000000000e+00 1.2000000000000000e+01 0.0000000000000000e+00
0.0000000000000000e+00 1.2000000000000000e+01 0.0000000000000000e+00
ITEM: ATOMS id type x y z
6 2 5.00658 4.69632 6.29186
7 2 4.72435 6.45022 5.30253
3 2 7.15596 5.50784 5.10844
2 2 7.28917 6.85233 6.12523
4 2 7.40913 5.30591 6.70445
8 3 6.91171 5.93123 6.04327
5 2 4.98463 6.53011 7.25219
1 1 5.15449 5.88956 6.23129
ITEM: TIMESTEP
2600
ITEM: NUMBER OF ATOMS
8
ITEM: BOX BOUNDS xy xz yz pp pp pp
0.0000000000000000e+00 1.2000000000000000e+01 0.0000000000000000e+00
0.0000000000000000e+00 1.2000000000000000e+01 0.0000000000000000e+00
0.0000000000000000e+00 1.2000000000000000e+01 0.0000000000000000e+00
ITEM: ATOMS id type x y z
3 2 7.01975 5.21829 5.22864
7 2 4.64692 6.35126 5.44745
2 2 7.08091 6.80124 5.4596
8 3 6.77462 5.97207 5.9278
1 1 5.33563 5.84794 6.37285
4 2 7.40329 5.83496 6.73388
5 2 5.23335 6.40927 7.49924
6 2 5.14856 4.60539 6.50362
ITEM: TIMESTEP
2700
ITEM: NUMBER OF ATOMS
8
ITEM: BOX BOUNDS xy xz yz pp pp pp
0.0000000000000000e+00 1.2000000000000000e+01 0.0000000000000000e+00
0.0000000000000000e+00 1.2000000000000000e+01 0.0000000000000000e+00
0.0000000000000000e+00 1.2000000000000000e+01 0.0000000000000000e+00
ITEM: ATOMS id type x y z
3 2 6.86773 5.41508 4.89247
7 2 4.40405 5.58973 5.75669
2 2 7.09143 6.93652 5.52024
8 3 6.81202 6.01305 5.76918
1 1 5.28958 5.79831 6.56571
4 2 7.56254 5.7154 6.39563
5 2 5.11693 6.71755 7.25398
6 2 5.46372 4.80845 7.19112
ITEM: TIMESTEP
2800
ITEM: NUMBER OF ATOMS
8
ITEM: BOX BOUNDS xy xz yz pp pp pp
0.0000000000000000e+00 1.2000000000000000e+01 0.0000000000000000e+00
0.0000000000000000e+00 1.2000000000000000e+01 0.0000000000000000e+00
0.0000000000000000e+00 1.2000000000000000e+01 0.0000000000000000e+00
ITEM: ATOMS id type x y z
3 2 6.83586 5.19885 4.90372
7 2 4.5147 5.21061 6.21497
2 2 6.6454 6.87977 4.93119
8 3 6.72219 6.07239 5.51249
1 1 5.37617 5.7197 6.90608
4 2 7.61739 6.07227 6.0229
5 2 5.11323 6.88642 7.29064
6 2 6.10244 4.95288 7.56446
ITEM: TIMESTEP
2900
ITEM: NUMBER OF ATOMS
8
ITEM: BOX BOUNDS xy xz yz pp pp pp
0.0000000000000000e+00 1.2000000000000000e+01 0.0000000000000000e+00
0.0000000000000000e+00 1.2000000000000000e+01 0.0000000000000000e+00
0.0000000000000000e+00 1.2000000000000000e+01 0.0000000000000000e+00
ITEM: ATOMS id type x y z
3 2 6.94389 5.15864 5.0874
8 3 6.4737 6.05358 5.4415
2 2 5.8093 6.26586 4.71177
4 2 7.14744 6.84645 5.53278
1 1 5.698 5.72715 6.98747
6 2 6.64785 5.19468 7.59427
5 2 5.53032 6.87515 7.42105
7 2 4.75336 5.0429 6.69556
ITEM: TIMESTEP
3000
ITEM: NUMBER OF ATOMS
8
ITEM: BOX BOUNDS xy xz yz pp pp pp
0.0000000000000000e+00 1.2000000000000000e+01 0.0000000000000000e+00
0.0000000000000000e+00 1.2000000000000000e+01 0.0000000000000000e+00
0.0000000000000000e+00 1.2000000000000000e+01 0.0000000000000000e+00
ITEM: ATOMS id type x y z
3 2 6.93315 5.25268 5.09367
8 3 6.28496 6.01324 5.48538
2 2 5.41514 6.09558 4.97192
4 2 6.77015 6.92159 5.32429
1 1 5.95942 5.78027 6.9112
6 2 6.94556 5.54883 7.54398
5 2 5.38247 6.7293 7.31186
7 2 5.20466 4.82688 7.0064
ITEM: TIMESTEP
3100
ITEM: NUMBER OF ATOMS
8
ITEM: BOX BOUNDS xy xz yz pp pp pp
0.0000000000000000e+00 1.2000000000000000e+01 0.0000000000000000e+00
0.0000000000000000e+00 1.2000000000000000e+01 0.0000000000000000e+00
0.0000000000000000e+00 1.2000000000000000e+01 0.0000000000000000e+00
ITEM: ATOMS id type x y z
3 2 6.55262 5.16374 4.81693
8 3 6.16127 6.00891 5.34936
2 2 5.19882 6.09056 5.04397
4 2 6.72393 6.83094 5.11419
1 1 6.115 5.79633 7.09758
6 2 7.23372 6.13404 7.53044
5 2 5.11217 6.49317 7.40555
7 2 5.88122 4.54959 7.23248
ITEM: TIMESTEP
3200
ITEM: NUMBER OF ATOMS
8
ITEM: BOX BOUNDS xy xz yz pp pp pp
0.0000000000000000e+00 1.2000000000000000e+01 0.0000000000000000e+00
0.0000000000000000e+00 1.2000000000000000e+01 0.0000000000000000e+00
0.0000000000000000e+00 1.2000000000000000e+01 0.0000000000000000e+00
ITEM: ATOMS id type x y z
3 2 6.75113 5.49154 4.74375
8 3 5.99006 5.97025 5.31317
2 2 5.11819 5.49357 5.16303
4 2 5.80655 6.92373 5.01031
1 1 6.33033 5.82834 7.16183
6 2 7.44134 6.23696 7.24615
5 2 5.51474 6.62799 7.53743
7 2 6.14186 4.68383 7.25556
ITEM: TIMESTEP
3300
ITEM: NUMBER OF ATOMS
8
ITEM: BOX BOUNDS xy xz yz pp pp pp
0.0000000000000000e+00 1.2000000000000000e+01 0.0000000000000000e+00
0.0000000000000000e+00 1.2000000000000000e+01 0.0000000000000000e+00
0.0000000000000000e+00 1.2000000000000000e+01 0.0000000000000000e+00
ITEM: ATOMS id type x y z
3 2 6.32813 6.31971 4.62088
8 3 5.81323 5.88547 5.45282
2 2 5.57551 4.93404 5.25804
4 2 4.93763 6.41379 5.41821
1 1 6.54954 5.94569 6.95224
6 2 7.77183 6.19142 6.84364
5 2 5.92374 6.71517 7.65961
7 2 6.34516 4.80299 7.46441
ITEM: TIMESTEP
3400
ITEM: NUMBER OF ATOMS
8
ITEM: BOX BOUNDS xy xz yz pp pp pp
0.0000000000000000e+00 1.2000000000000000e+01 0.0000000000000000e+00
0.0000000000000000e+00 1.2000000000000000e+01 0.0000000000000000e+00
0.0000000000000000e+00 1.2000000000000000e+01 0.0000000000000000e+00
ITEM: ATOMS id type x y z
3 2 5.24728 6.68144 5.14948
8 3 5.66195 5.80325 5.62619
2 2 6.03931 5.33753 4.80765
4 2 4.85613 5.29051 5.97625
1 1 6.73026 6.03928 6.75387
6 2 7.79691 6.14837 6.1368
5 2 6.31877 7.02131 7.37092
7 2 6.78972 5.03816 7.53881
ITEM: TIMESTEP
3500
ITEM: NUMBER OF ATOMS
8
ITEM: BOX BOUNDS xy xz yz pp pp pp
0.0000000000000000e+00 1.2000000000000000e+01 0.0000000000000000e+00
0.0000000000000000e+00 1.2000000000000000e+01 0.0000000000000000e+00
0.0000000000000000e+00 1.2000000000000000e+01 0.0000000000000000e+00
ITEM: ATOMS id type x y z
3 2 4.89252 6.58079 5.6343
8 3 5.4373 5.66103 5.72219
2 2 5.65741 5.2905 4.79607
6 2 7.68945 6.71551 5.81497
1 1 7.02337 6.20569 6.64937
7 2 7.37468 5.15462 6.99017
5 2 6.55644 7.02805 7.40093
4 2 4.8572 4.94179 6.12824
ITEM: TIMESTEP
3600
ITEM: NUMBER OF ATOMS
8
ITEM: BOX BOUNDS xy xz yz pp pp pp
0.0000000000000000e+00 1.2000000000000000e+01 0.0000000000000000e+00
0.0000000000000000e+00 1.2000000000000000e+01 0.0000000000000000e+00
0.0000000000000000e+00 1.2000000000000000e+01 0.0000000000000000e+00
ITEM: ATOMS id type x y z
3 2 4.72192 6.39928 5.74103
8 3 5.40726 5.5936 5.9144
2 2 5.48093 5.04184 5.05475
6 2 7.09015 7.22447 5.52502
1 1 7.05218 6.28631 6.38777
7 2 7.95685 5.41673 6.32862
5 2 6.86645 6.66258 7.5725
4 2 5.02079 5.03973 6.67696
ITEM: TIMESTEP
3700
ITEM: NUMBER OF ATOMS
8
ITEM: BOX BOUNDS xy xz yz pp pp pp
0.0000000000000000e+00 1.2000000000000000e+01 0.0000000000000000e+00
0.0000000000000000e+00 1.2000000000000000e+01 0.0000000000000000e+00
0.0000000000000000e+00 1.2000000000000000e+01 0.0000000000000000e+00
ITEM: ATOMS id type x y z
3 2 4.8476 6.38588 6.16664
8 3 5.53681 5.57271 6.08614
2 2 5.35992 5.16643 5.15984
6 2 6.83039 7.27965 5.49734
1 1 6.88085 6.31287 6.17589
7 2 7.72853 5.51823 5.80916
5 2 7.02844 6.53975 7.32317
4 2 5.3788 4.90017 6.8267
ITEM: TIMESTEP
3800
ITEM: NUMBER OF ATOMS
8
ITEM: BOX BOUNDS xy xz yz pp pp pp
0.0000000000000000e+00 1.2000000000000000e+01 0.0000000000000000e+00
0.0000000000000000e+00 1.2000000000000000e+01 0.0000000000000000e+00
0.0000000000000000e+00 1.2000000000000000e+01 0.0000000000000000e+00
ITEM: ATOMS id type x y z
6 2 6.64172 7.18337 5.15976
2 2 4.89585 5.52972 5.35269
7 2 7.85785 5.63633 5.66366
1 1 6.96733 6.37998 6.03706
4 2 5.64595 4.55509 6.42737
5 2 7.02764 6.99748 7.12316
3 2 4.99737 5.94212 7.03197
8 3 5.47776 5.51708 6.19497
ITEM: TIMESTEP
3900
ITEM: NUMBER OF ATOMS
8
ITEM: BOX BOUNDS xy xz yz pp pp pp
0.0000000000000000e+00 1.2000000000000000e+01 0.0000000000000000e+00
0.0000000000000000e+00 1.2000000000000000e+01 0.0000000000000000e+00
0.0000000000000000e+00 1.2000000000000000e+01 0.0000000000000000e+00
ITEM: ATOMS id type x y z
6 2 6.4127 7.49834 5.2416
2 2 4.78841 5.41835 5.64932
7 2 7.59225 5.76844 5.12183
1 1 6.9374 6.52175 5.80289
4 2 5.65683 4.48229 6.71273
5 2 7.44632 6.71238 6.90767
3 2 5.06831 5.96618 7.15904
8 3 5.5081 5.40759 6.37321
ITEM: TIMESTEP
4000
ITEM: NUMBER OF ATOMS
8
ITEM: BOX BOUNDS xy xz yz pp pp pp
0.0000000000000000e+00 1.2000000000000000e+01 0.0000000000000000e+00
0.0000000000000000e+00 1.2000000000000000e+01 0.0000000000000000e+00
0.0000000000000000e+00 1.2000000000000000e+01 0.0000000000000000e+00
ITEM: ATOMS id type x y z
6 2 6.11219 7.48439 5.87263
2 2 5.06761 4.88857 5.93092
7 2 6.6409 6.12098 4.47406
1 1 6.68607 6.45835 5.6572
8 3 5.70293 5.47474 6.50147
4 2 6.21769 4.78164 7.01298
5 2 7.79799 6.34449 6.02918
3 2 5.11527 5.97056 7.25043
ITEM: TIMESTEP
4100
ITEM: NUMBER OF ATOMS
8
ITEM: BOX BOUNDS xy xz yz pp pp pp
0.0000000000000000e+00 1.2000000000000000e+01 0.0000000000000000e+00
0.0000000000000000e+00 1.2000000000000000e+01 0.0000000000000000e+00
0.0000000000000000e+00 1.2000000000000000e+01 0.0000000000000000e+00
ITEM: ATOMS id type x y z
6 2 6.25924 7.68492 5.79829
1 1 6.50335 6.50466 5.47848
7 2 5.93192 6.12995 4.40631
5 2 7.7518 6.31413 5.66208
8 3 5.84323 5.43253 6.64376
4 2 6.4651 4.66738 6.78823
3 2 5.61619 5.84264 7.60416
2 2 4.93652 5.04232 6.24921
ITEM: TIMESTEP
4200
ITEM: NUMBER OF ATOMS
8
ITEM: BOX BOUNDS xy xz yz pp pp pp
0.0000000000000000e+00 1.2000000000000000e+01 0.0000000000000000e+00
0.0000000000000000e+00 1.2000000000000000e+01 0.0000000000000000e+00
0.0000000000000000e+00 1.2000000000000000e+01 0.0000000000000000e+00
ITEM: ATOMS id type x y z
6 2 5.69453 7.50003 5.59712
1 1 6.32912 6.53617 5.31048
7 2 5.85621 5.89902 4.45083
5 2 7.53187 6.67286 5.32805
8 3 5.98388 5.40769 6.7745
4 2 6.0923 4.49798 6.38541
3 2 6.68157 5.58841 7.55347
2 2 5.01696 5.53059 7.17738
ITEM: TIMESTEP
4300
ITEM: NUMBER OF ATOMS
8
ITEM: BOX BOUNDS xy xz yz pp pp pp
0.0000000000000000e+00 1.2000000000000000e+01 0.0000000000000000e+00
0.0000000000000000e+00 1.2000000000000000e+01 0.0000000000000000e+00
0.0000000000000000e+00 1.2000000000000000e+01 0.0000000000000000e+00
ITEM: ATOMS id type x y z
6 2 5.26832 7.34084 5.60107
1 1 6.11426 6.43627 5.38973
7 2 5.81664 5.65349 4.44045
5 2 7.25075 6.81716 5.17444
8 3 6.15869 5.48572 6.7321
4 2 5.61926 4.67258 6.53698
3 2 7.14102 5.20518 6.9768
2 2 5.6505 5.98615 7.5003
ITEM: TIMESTEP
4400
ITEM: NUMBER OF ATOMS
8
ITEM: BOX BOUNDS xy xz yz pp pp pp
0.0000000000000000e+00 1.2000000000000000e+01 0.0000000000000000e+00
0.0000000000000000e+00 1.2000000000000000e+01 0.0000000000000000e+00
0.0000000000000000e+00 1.2000000000000000e+01 0.0000000000000000e+00
ITEM: ATOMS id type x y z
6 2 4.86809 6.89951 5.59602
1 1 5.95323 6.38013 5.39192
7 2 5.89245 5.54373 4.47264
5 2 6.79621 7.26146 5.28746
8 3 6.28509 5.52592 6.72077
4 2 5.42903 5.29005 7.14753
3 2 6.81074 4.64976 6.50185
2 2 6.91957 6.0743 7.35943
ITEM: TIMESTEP
4500
ITEM: NUMBER OF ATOMS
8
ITEM: BOX BOUNDS xy xz yz pp pp pp
0.0000000000000000e+00 1.2000000000000000e+01 0.0000000000000000e+00
0.0000000000000000e+00 1.2000000000000000e+01 0.0000000000000000e+00
0.0000000000000000e+00 1.2000000000000000e+01 0.0000000000000000e+00
ITEM: ATOMS id type x y z
6 2 4.62567 6.73692 5.73277
1 1 5.67437 6.41791 5.25008
7 2 5.61448 5.54719 4.45352
5 2 6.47378 7.32985 5.11211
8 3 6.50267 5.508 6.81336
4 2 5.93554 5.64306 7.60958
3 2 6.55409 4.48737 6.61065
2 2 7.47806 5.81731 7.08197
ITEM: TIMESTEP
4600
ITEM: NUMBER OF ATOMS
8
ITEM: BOX BOUNDS xy xz yz pp pp pp
0.0000000000000000e+00 1.2000000000000000e+01 0.0000000000000000e+00
0.0000000000000000e+00 1.2000000000000000e+01 0.0000000000000000e+00
0.0000000000000000e+00 1.2000000000000000e+01 0.0000000000000000e+00
ITEM: ATOMS id type x y z
6 2 4.44052 6.29547 6.19855
1 1 5.51747 6.27723 5.49224
7 2 5.63393 5.42633 4.55146
5 2 6.03949 7.31097 5.07496
8 3 6.61774 5.62374 6.63237
4 2 6.81996 6.24749 7.37769
3 2 6.24536 4.77361 7.10652
2 2 7.58595 5.40675 6.20988
ITEM: TIMESTEP
4700
ITEM: NUMBER OF ATOMS
8
ITEM: BOX BOUNDS xy xz yz pp pp pp
0.0000000000000000e+00 1.2000000000000000e+01 0.0000000000000000e+00
0.0000000000000000e+00 1.2000000000000000e+01 0.0000000000000000e+00
0.0000000000000000e+00 1.2000000000000000e+01 0.0000000000000000e+00
ITEM: ATOMS id type x y z
5 2 5.4603 7.31668 5.67743
1 1 5.40217 6.1472 5.63685
7 2 5.47246 5.65352 4.53807
8 3 6.73089 5.72174 6.51076
4 2 7.51659 6.26509 6.22288
3 2 6.63904 5.8374 7.53429
2 2 6.87953 4.65623 6.40957
6 2 4.45843 5.7641 6.27768
ITEM: TIMESTEP
4800
ITEM: NUMBER OF ATOMS
8
ITEM: BOX BOUNDS xy xz yz pp pp pp
0.0000000000000000e+00 1.2000000000000000e+01 0.0000000000000000e+00
0.0000000000000000e+00 1.2000000000000000e+01 0.0000000000000000e+00
0.0000000000000000e+00 1.2000000000000000e+01 0.0000000000000000e+00
ITEM: ATOMS id type x y z
5 2 5.01592 7.34882 5.96135
1 1 5.17191 6.11069 5.73349
7 2 5.27796 5.71687 4.57958
4 2 7.58894 5.65513 5.70009
8 3 6.91205 5.74818 6.43672
6 2 4.43536 5.39151 6.37878
3 2 7.08786 6.56961 7.03628
2 2 6.97085 4.83527 6.99648
ITEM: TIMESTEP
4900
ITEM: NUMBER OF ATOMS
8
ITEM: BOX BOUNDS xy xz yz pp pp pp
0.0000000000000000e+00 1.2000000000000000e+01 0.0000000000000000e+00
0.0000000000000000e+00 1.2000000000000000e+01 0.0000000000000000e+00
0.0000000000000000e+00 1.2000000000000000e+01 0.0000000000000000e+00
ITEM: ATOMS id type x y z
5 2 5.1654 7.21195 5.97124
1 1 5.25734 5.98715 5.93244
7 2 5.10911 5.59963 4.77855
4 2 7.34317 5.58904 5.44537
8 3 6.8416 5.83506 6.28128
6 2 4.67233 5.377 6.83053
3 2 7.19061 6.75137 6.59048
2 2 6.95984 5.10608 7.06394
ITEM: TIMESTEP
5000
ITEM: NUMBER OF ATOMS
8
ITEM: BOX BOUNDS xy xz yz pp pp pp
0.0000000000000000e+00 1.2000000000000000e+01 0.0000000000000000e+00
0.0000000000000000e+00 1.2000000000000000e+01 0.0000000000000000e+00
0.0000000000000000e+00 1.2000000000000000e+01 0.0000000000000000e+00
ITEM: ATOMS id type x y z
5 2 4.89371 6.96582 5.62341
4 2 7.25133 5.81514 5.19921
7 2 4.98681 4.98992 5.39994
8 3 6.9069 5.88407 6.13763
6 2 4.76262 5.78773 7.2407
3 2 7.22562 6.73868 6.58995
2 2 7.25606 5.0593 6.73954
1 1 5.17866 5.9494 6.10823
ITEM: TIMESTEP
5100
ITEM: NUMBER OF ATOMS
8
ITEM: BOX BOUNDS xy xz yz pp pp pp
0.0000000000000000e+00 1.2000000000000000e+01 0.0000000000000000e+00
0.0000000000000000e+00 1.2000000000000000e+01 0.0000000000000000e+00
0.0000000000000000e+00 1.2000000000000000e+01 0.0000000000000000e+00
ITEM: ATOMS id type x y z
5 2 4.53871 6.55016 5.45815
4 2 7.10723 6.01304 4.95087
8 3 7.00451 5.99051 5.93842
1 1 5.0535 5.81485 6.37004
6 2 4.95816 6.3697 7.45973
3 2 7.5509 6.7397 6.31545
2 2 7.41357 5.0416 6.18982
7 2 4.79271 4.60537 6.3801
ITEM: TIMESTEP
5200
ITEM: NUMBER OF ATOMS
8
ITEM: BOX BOUNDS xy xz yz pp pp pp
0.0000000000000000e+00 1.2000000000000000e+01 0.0000000000000000e+00
0.0000000000000000e+00 1.2000000000000000e+01 0.0000000000000000e+00
0.0000000000000000e+00 1.2000000000000000e+01 0.0000000000000000e+00
ITEM: ATOMS id type x y z
5 2 4.51296 6.10189 5.66952
4 2 6.7207 5.88414 4.82762
8 3 6.77929 5.9933 5.81696
1 1 5.31786 5.80817 6.52001
6 2 5.31372 6.45953 7.52057
3 2 7.20135 6.90397 5.91747
2 2 7.53943 5.3715 6.22371
7 2 5.37103 4.63157 6.67602
ITEM: TIMESTEP
5300
ITEM: NUMBER OF ATOMS
8
ITEM: BOX BOUNDS xy xz yz pp pp pp
0.0000000000000000e+00 1.2000000000000000e+01 0.0000000000000000e+00
0.0000000000000000e+00 1.2000000000000000e+01 0.0000000000000000e+00
0.0000000000000000e+00 1.2000000000000000e+01 0.0000000000000000e+00
ITEM: ATOMS id type x y z
5 2 4.49314 6.33129 6.0666
4 2 6.86171 5.26085 5.07247
8 3 6.71454 6.03357 5.72245
3 2 6.69714 6.89873 5.1995
1 1 5.40306 5.76123 6.62161
6 2 5.69704 6.26216 7.73286
7 2 5.27847 4.51166 6.69594
2 2 7.61809 6.0312 6.29334
ITEM: TIMESTEP
5400
ITEM: NUMBER OF ATOMS
8
ITEM: BOX BOUNDS xy xz yz pp pp pp
0.0000000000000000e+00 1.2000000000000000e+01 0.0000000000000000e+00
0.0000000000000000e+00 1.2000000000000000e+01 0.0000000000000000e+00
0.0000000000000000e+00 1.2000000000000000e+01 0.0000000000000000e+00
ITEM: ATOMS id type x y z
5 2 4.34069 5.81858 6.19307
4 2 6.6482 5.44816 4.74104
8 3 6.73113 6.05329 5.57085
3 2 6.68276 7.01635 5.25393
1 1 5.3912 5.73277 6.81664
6 2 5.51301 6.56921 7.6881
7 2 5.67447 4.59569 7.15978
2 2 7.68226 5.87912 6.04094
ITEM: TIMESTEP
5500
ITEM: NUMBER OF ATOMS
8
ITEM: BOX BOUNDS xy xz yz pp pp pp
0.0000000000000000e+00 1.2000000000000000e+01 0.0000000000000000e+00
0.0000000000000000e+00 1.2000000000000000e+01 0.0000000000000000e+00
0.0000000000000000e+00 1.2000000000000000e+01 0.0000000000000000e+00
ITEM: ATOMS id type x y z
3 2 6.6446 7.04333 5.3037
4 2 6.24613 5.50785 4.74696
8 3 6.56943 6.06206 5.55513
2 2 7.55199 5.75052 5.87569
1 1 5.58954 5.72766 6.83164
6 2 5.55862 6.7716 7.40438
7 2 6.12611 4.85854 7.45681
5 2 4.53577 5.32767 6.34741
ITEM: TIMESTEP
5600
ITEM: NUMBER OF ATOMS
8
ITEM: BOX BOUNDS xy xz yz pp pp pp