LAMMPS (2 Aug 2023 - Update 2)
#13 Butadiene
units           metal
boundary        p p p
atom_style      atomic

neighbor        2.0 bin
neigh_modify    delay 0 every 1 check yes

read_data       conf.lmp
Reading data file ...
  triclinic box = (0 0 0) to (12 12 12) with tilt (0 0 0)
  1 by 1 by 2 MPI processor grid
  reading atoms ...
  8 atoms
  read_data CPU = 0.003 seconds
mass            1 10.8
mass            2 1.0
mass            3 14.0

variable        sysvol          equal vol
variable        sysmass         equal mass(all)/6.0221367e+23
variable        sysdensity      equal v_sysmass/v_sysvol/1.0e-24
variable	out_freq 	equal 100

pair_style      deepmd ../frozen_model_1.pb ../frozen_model_2.pb out_file md.out out_freq 10 atomic relative 1.0
Summary of lammps deepmd module ...
  >>> Info of deepmd-kit:
  installed to:       /rs1/researchers/w/wjpfaend/rahul/MLP/DeePMD-kit/deepmd_cpu
  source:             v2.2.8-dirty
  source branch:      master
  source commit:      b875ea8
  source commit at:   2024-01-22 22:28:58 -0500
  support model ver.: 1.1 
  build variant:      cpu
  build with tf inc:  /rs1/researchers/w/wjpfaend/rahul/MLP/DeePMD-kit/tensorflow/lib/python3.11/site-packages/tensorflow/include;/rs1/researchers/w/wjpfaend/rahul/MLP/DeePMD-kit/tensorflow/lib/python3.11/site-packages/tensorflow/include
  build with tf lib:  /rs1/researchers/w/wjpfaend/rahul/MLP/DeePMD-kit/tensorflow/lib/python3.11/site-packages/tensorflow/libtensorflow_cc.so.2
  set tf intra_op_parallelism_threads: 0
  set tf inter_op_parallelism_threads: 0
  >>> Info of lammps module:
  use deepmd-kit at:  /rs1/researchers/w/wjpfaend/rahul/MLP/DeePMD-kit/deepmd_cpu
  source:             v2.2.8-dirty
  source branch:      master
  source commit:      b875ea8
  source commit at:   2024-01-22 22:28:58 -0500
  build float prec:   double
  build with tf inc:  /rs1/researchers/w/wjpfaend/rahul/MLP/DeePMD-kit/tensorflow/lib/python3.11/site-packages/tensorflow/include;/rs1/researchers/w/wjpfaend/rahul/MLP/DeePMD-kit/tensorflow/lib/python3.11/site-packages/tensorflow/include
  build with tf lib:  /rs1/researchers/w/wjpfaend/rahul/MLP/DeePMD-kit/tensorflow/lib/python3.11/site-packages/tensorflow/libtensorflow_cc.so.2
pair_coeff	* *

#
velocity        all create 300.0 2345678 rot no dist gaussian
fix             1 all nvt temp 300.0 300.0 0.05
fix             2 all plumed plumedfile plumed.dat outfile PLUMED.log

timestep        0.0005
thermo_style    custom step pe ke etotal v_sysdensity temp press vol
thermo          10

dump            10 all custom 100 traj.dump id type x y z
dump		101 all xyz 20 traj.xyz
dump_modify	101 element B H N

fix		extra all print 20 "$(step), $(ke), $(pe), $(etotal), $(temp), $(press), $(vol)" file logfile screen no

restart	        100000 dump.restart

run             500000

CITE-CITE-CITE-CITE-CITE-CITE-CITE-CITE-CITE-CITE-CITE-CITE-CITE

Your simulation uses code contributions which should be cited:

- USER-DEEPMD package:

@article{Wang_ComputPhysCommun_2018_v228_p178,
  author = {Wang, Han and Zhang, Linfeng and Han, Jiequn and E, Weinan},
  doi = {10.1016/j.cpc.2018.03.016},
  url = {https://doi.org/10.1016/j.cpc.2018.03.016},
  year = 2018,
  month = {jul},
  publisher = {Elsevier {BV}},
  volume = 228,
  journal = {Comput. Phys. Commun.},
  title = {{DeePMD-kit: A deep learning package for many-body potential energy representation and molecular dynamics}},
  pages = {178--184}
}
@misc{Zeng_JChemPhys_2023_v159_p054801,
  title  = {{DeePMD-kit v2: A software package for deep potential models}},
  author =   {Jinzhe Zeng and Duo Zhang and Denghui Lu and Pinghui Mo and Zeyu Li
         and Yixiao Chen and Mari{\'a}n Rynik and Li'ang Huang and Ziyao Li and 
         Shaochen Shi and Yingze Wang and Haotian Ye and Ping Tuo and Jiabin
         Yang and Ye Ding and Yifan Li and Davide Tisi and Qiyu Zeng and Han 
         Bao and Yu Xia and Jiameng Huang and Koki Muraoka and Yibo Wang and 
         Junhan Chang and Fengbo Yuan and Sigbj{\o}rn L{\o}land Bore and Chun
         Cai and Yinnian Lin and Bo Wang and Jiayan Xu and Jia-Xin Zhu and 
         Chenxing Luo and Yuzhi Zhang and Rhys E A Goodall and Wenshuo Liang
         and Anurag Kumar Singh and Sikai Yao and Jingchao Zhang and Renata
         Wentzcovitch and Jiequn Han and Jie Liu and Weile Jia and Darrin M
         York and Weinan E and Roberto Car and Linfeng Zhang and Han Wang},
  journal =  {J. Chem. Phys.},
  volume =   159,
  issue =    5,  
  year =    2023,
  pages  =   054801,
  doi =      {10.1063/5.0155600},
}

CITE-CITE-CITE-CITE-CITE-CITE-CITE-CITE-CITE-CITE-CITE-CITE-CITE

Generated 0 of 3 mixed pair_coeff terms from geometric mixing rule
Neighbor list info ...
  update: every = 1 steps, delay = 0 steps, check = yes
  max neighbors/atom: 2000, page size: 100000
  master list distance cutoff = 8
  ghost atom cutoff = 8
  binsize = 4, bins = 3 3 3
  1 neighbor lists, perpetual/occasional/extra = 1 0 0
  (1) pair deepmd, perpetual
      attributes: full, newton on
      pair build: full/bin/atomonly
      stencil: full/bin/3d
      bin: standard
Per MPI rank memory allocation (min/avg/max) = 3.085 | 3.085 | 3.085 Mbytes
   Step         PotEng         KinEng         TotEng      v_sysdensity       Temp          Press          Volume    
         0  -36.561617      0.2714463     -36.29017       0.029597591    300           -370.48981      1728         
        10  -36.514021      0.22477634    -36.289244      0.029597591    248.42078     -730.87676      1728         
        20  -36.458532      0.17071327    -36.287818      0.029597591    188.67076     -9.7864832      1728         
        30  -36.525057      0.23962852    -36.285428      0.029597591    264.83528      298.18613      1728         
        40  -36.544467      0.26294082    -36.281526      0.029597591    290.59981     -1437.3161      1728         
        50  -36.49077       0.21462219    -36.276148      0.029597591    237.1985       1655.7027      1728         
        60  -36.490554      0.22520495    -36.265349      0.029597591    248.89447     -956.63256      1728         
        70  -36.508408      0.24969418    -36.258714      0.029597591    275.95975      700.77734      1728         
        80  -36.478625      0.22841549    -36.250209      0.029597591    252.44274      449.64118      1728         
        90  -36.491643      0.25266516    -36.238978      0.029597591    279.24325      74.77516       1728         
       100  -36.515324      0.28909209    -36.226232      0.029597591    319.50196     -839.5678       1728         
       110  -36.471262      0.26424979    -36.207012      0.029597591    292.04647      1129.1946      1728         
       120  -36.423152      0.23086693    -36.192285      0.029597591    255.15204     -2132.3909      1728         
       130  -36.471265      0.29599626    -36.175269      0.029597591    327.13239      969.89564      1728         
       140  -36.465994      0.3114799     -36.154514      0.029597591    344.24477     -461.40527      1728         
       150  -36.459238      0.32736626    -36.131872      0.029597591    361.80222     -304.43425      1728         
       160  -36.491159      0.39107713    -36.100081      0.029597591    432.21491      443.12442      1728         
       170  -36.433021      0.35625698    -36.076764      0.029597591    393.73199      623.04377      1728         
       180  -36.426574      0.37037829    -36.056196      0.029597591    409.33874     -733.29177      1728         
       190  -36.488089      0.45636498    -36.031724      0.029597591    504.37044      1475.5573      1728         
       200  -36.417973      0.40683565    -36.011137      0.029597591    449.63108     -816.61396      1728         
       210  -36.461216      0.47184797    -35.989368      0.029597591    521.4821      -281.47598      1728         
       220  -36.410031      0.43372884    -35.976302      0.029597591    479.35319      462.56988      1728         
       230  -36.298551      0.329945      -35.968606      0.029597591    364.65223     -1532.4174      1728         
       240  -36.47782       0.51276278    -35.965058      0.029597591    566.70079     -42.678813      1728         
       250  -36.393154      0.43202026    -35.961134      0.029597591    477.46488      48.913036      1728         
       260  -36.345872      0.3863799     -35.959492      0.029597591    427.02357     -412.06401      1728         
       270  -36.481084      0.51815285    -35.962931      0.029597591    572.65784      177.63897      1728         
       280  -36.409408      0.4338992     -35.975508      0.029597591    479.54147      786.85475      1728         
       290  -36.273256      0.28807834    -35.985177      0.029597591    318.38157     -832.69711      1728         
       300  -36.471958      0.46918701    -36.002771      0.029597591    518.54124      1954.3804      1728         
       310  -36.377588      0.36163916    -36.015948      0.029597591    399.68032     -1154.4599      1728         
       320  -36.383043      0.35133552    -36.031707      0.029597591    388.29284      697.89743      1728         
       330  -36.3851        0.3344167     -36.050683      0.029597591    369.59432     -98.472525      1728         
       340  -36.345731      0.27620634    -36.069525      0.029597591    305.26074     -519.64232      1728         
       350  -36.364281      0.28329128    -36.08099       0.029597591    313.09096     -1046.618       1728         
       360  -36.420566      0.33175277    -36.088813      0.029597591    366.65016      1022.5362      1728         
       370  -36.35792       0.25893857    -36.098981      0.029597591    286.17656     -1662.1138      1728         
       380  -36.435371      0.32728859    -36.108083      0.029597591    361.71639      1609.4872      1728         
       390  -36.444319      0.33014985    -36.114169      0.029597591    364.87862     -377.785        1728         
       400  -36.372083      0.25156652    -36.120516      0.029597591    278.02904      106.89923      1728         
       410  -36.388315      0.26712158    -36.121193      0.029597591    295.22036      884.59835      1728         
       420  -36.481594      0.3544215     -36.127173      0.029597591    391.70344      145.06906      1728         
       430  -36.416408      0.28593138    -36.130477      0.029597591    316.00877     -763.35838      1728         
       440  -36.367953      0.23380833    -36.134145      0.029597591    258.40285      1450.2533      1728         
       450  -36.43412       0.2939196     -36.1402        0.029597591    324.83728     -1352.4251      1728         
       460  -36.431933      0.29304464    -36.138889      0.029597591    323.87029     -584.2686       1728         
       470  -36.375747      0.23406385    -36.141683      0.029597591    258.68525      504.13825      1728         
       480  -36.419202      0.27408583    -36.145116      0.029597591    302.91718     -1288.6869      1728         
       490  -36.468389      0.31829777    -36.150091      0.029597591    351.77981      532.91752      1728         
       500  -36.467148      0.31495658    -36.152191      0.029597591    348.08717      709.95412      1728         
       510  -36.384015      0.23406662    -36.149948      0.029597591    258.68831     -439.45126      1728         
       520  -36.402387      0.24639605    -36.155991      0.029597591    272.31468      812.30567      1728         
       530  -36.504372      0.34367788    -36.160694      0.029597591    379.82968      809.01038      1728         
       540  -36.388532      0.22618326    -36.162348      0.029597591    249.97569     -1477.0804      1728         
       550  -36.376672      0.21062871    -36.166043      0.029597591    232.78494      1725.7314      1728         
       560  -36.454303      0.28849779    -36.165805      0.029597591    318.84515     -1026.7044      1728         
       570  -36.411807      0.2426293     -36.169177      0.029597591    268.1517      -536.51146      1728         
       580  -36.33604       0.16432511    -36.171715      0.029597591    181.61062      172.68757      1728         
       590  -36.387899      0.21194463    -36.175954      0.029597591    234.23928     -241.68276      1728         
       600  -36.453246      0.27442604    -36.17882       0.029597591    303.29318     -1138.7721      1728         
       610  -36.423353      0.24814006    -36.175213      0.029597591    274.24215      1903.8704      1728         
       620  -36.371741      0.19559063    -36.17615       0.029597591    216.16499     -1467.8952      1728         
       630  -36.456265      0.27555673    -36.180709      0.029597591    304.54281      1347.6283      1728         
       640  -36.424012      0.24051654    -36.183496      0.029597591    265.81671      531.45536      1728         
       650  -36.365743      0.1801203     -36.185622      0.029597591    199.06732     -221.6307       1728         
       660  -36.444799      0.26304995    -36.181749      0.029597591    290.72042      79.501973      1728         
       670  -36.45489       0.27179488    -36.183095      0.029597591    300.38525      828.8317       1728         
       680  -36.378882      0.19547374    -36.183408      0.029597591    216.0358      -1772.6217      1728         
       690  -36.409116      0.22491398    -36.184202      0.029597591    248.57289      1124.7515      1728         
       700  -36.401236      0.21528517    -36.18595       0.029597591    237.93123     -868.61892      1728         
       710  -36.421017      0.24029572    -36.180721      0.029597591    265.57266     -693.53356      1728         
       720  -36.406518      0.22723534    -36.179283      0.029597591    251.13844      800.07199      1728         
       730  -36.425544      0.24913662    -36.176407      0.029597591    275.34353     -560.40079      1728         
       740  -36.482031      0.30903458    -36.172996      0.029597591    341.54222     -283.68174      1728         
       750  -36.400943      0.23141493    -36.169528      0.029597591    255.75769      1373.1994      1728         
       760  -36.365882      0.20427872    -36.161603      0.029597591    225.767       -292.00704      1728         
       770  -36.454462      0.29571867    -36.158744      0.029597591    326.8256       346.50014      1728         
       780  -36.414328      0.26369615    -36.150632      0.029597591    291.4346       1174.457       1728         
       790  -36.39176       0.24888386    -36.142876      0.029597591    275.06419     -1494.5859      1728         
       800  -36.429195      0.29596767    -36.133227      0.029597591    327.10079      918.30516      1728         
       810  -36.330387      0.20862979    -36.121757      0.029597591    230.57576     -638.77509      1728         
       820  -36.324589      0.21130594    -36.113283      0.029597591    233.53341     -715.03933      1728         
       830  -36.386029      0.28390105    -36.102128      0.029597591    313.76487      165.94198      1728         
       840  -36.332833      0.24287005    -36.089963      0.029597591    268.41778      236.7748       1728         
       850  -36.34938       0.27139316    -36.077987      0.029597591    299.94126     -1178.588       1728         
       860  -36.379083      0.32531459    -36.053768      0.029597591    359.53475      1534.3834      1728         
       870  -36.313082      0.27540942    -36.037672      0.029597591    304.37999     -1503.4814      1728         
       880  -36.334424      0.31014066    -36.024284      0.029597591    342.76466      1261.5822      1728         
       890  -36.347999      0.33688493    -36.011114      0.029597591    372.32218      788.78439      1728         
       900  -36.281077      0.28317442    -35.997903      0.029597591    312.9618       200.26543      1728         
       910  -36.366615      0.38471766    -35.981897      0.029597591    425.18648      188.02072      1728         
       920  -36.355751      0.38512563    -35.970625      0.029597591    425.63736      785.13125      1728         
       930  -36.25106       0.28715034    -35.96391       0.029597591    317.35596     -2122.99        1728         
       940  -36.319322      0.36094796    -35.958374      0.029597591    398.91642      1203.7486      1728         
       950  -36.352766      0.39517189    -35.957594      0.029597591    436.7404      -803.84927      1728         
       960  -36.246714      0.29347784    -35.953236      0.029597591    324.34905     -191.4161       1728         
       970  -36.285181      0.32697488    -35.958206      0.029597591    361.36968      818.11855      1728         
       980  -36.333981      0.37070971    -35.963272      0.029597591    409.70502     -904.83495      1728         
       990  -36.320939      0.35026841    -35.970671      0.029597591    387.11348     -863.35037      1728         
      1000  -36.381233      0.39819502    -35.983038      0.029597591    440.08153      1263.9413      1728         
      1010  -36.306641      0.30864136    -35.998         0.029597591    341.10764     -700.03208      1728         
      1020  -36.345104      0.32964251    -36.015462      0.029597591    364.31792      817.68564      1728         
      1030  -36.367159      0.33042016    -36.036739      0.029597591    365.17737      1412.6629      1728         
      1040  -36.321947      0.25767294    -36.064274      0.029597591    284.7778      -1240.4261      1728         
      1050  -36.438197      0.34779773    -36.090399      0.029597591    384.38291      840.37153      1728         
      1060  -36.466184      0.35433725    -36.111847      0.029597591    391.61032     -360.81646      1728         
      1070  -36.31033       0.17474777    -36.135583      0.029597591    193.12966     -623.36023      1728         
      1080  -36.356436      0.20100872    -36.155427      0.029597591    222.15302      606.17542      1728         
      1090  -36.465855      0.28974314    -36.176112      0.029597591    320.22149     -47.555916      1728         
      1100  -36.371309      0.18284442    -36.188464      0.029597591    202.078       -1610.6072      1728         
      1110  -36.356983      0.16091231    -36.196071      0.029597591    177.83883      1372.7797      1728         
      1120  -36.428895      0.22161237    -36.207282      0.029597591    244.92399     -1374.5316      1728         
      1130  -36.450331      0.2351972     -36.215134      0.029597591    259.93782      478.55555      1728         
      1140  -36.349344      0.13046905    -36.218875      0.029597591    144.19321      929.67574      1728         
      1150  -36.389672      0.16390273    -36.22577       0.029597591    181.14382      232.07398      1728         
      1160  -36.471366      0.24461171    -36.226754      0.029597591    270.34265     -163.88318      1728         
      1170  -36.44315       0.21528307    -36.227867      0.029597591    237.9289       1457.9152      1728         
      1180  -36.374733      0.14795753    -36.226776      0.029597591    163.52132     -1638.1551      1728         
      1190  -36.480298      0.25283026    -36.227468      0.029597591    279.42571      841.0439       1728         
      1200  -36.434946      0.20885377    -36.226092      0.029597591    230.8233      -255.54767      1728         
      1210  -36.38815       0.16944777    -36.218702      0.029597591    187.27214     -741.07102      1728         
      1220  -36.379026      0.16358912    -36.215437      0.029597591    180.79721      314.14338      1728         
      1230  -36.427378      0.21332022    -36.214058      0.029597591    235.75958      21.915275      1728         
      1240  -36.392562      0.18379956    -36.208762      0.029597591    203.13361     -1375.938       1728         
      1250  -36.383565      0.1817514     -36.201813      0.029597591    200.87         1228.5917      1728         
      1260  -36.410134      0.22217098    -36.187963      0.029597591    245.54136     -811.15367      1728         
      1270  -36.486148      0.30532609    -36.180822      0.029597591    337.44363     -42.80427       1728         
      1280  -36.355891      0.18527443    -36.170617      0.029597591    204.76362      1459.7548      1728         
      1290  -36.357341      0.19159718    -36.165744      0.029597591    211.75147     -223.52407      1728         
      1300  -36.466247      0.30819035    -36.158057      0.029597591    340.60919      333.57567      1728         
      1310  -36.457018      0.31605943    -36.140958      0.029597591    349.30602      713.95156      1728         
      1320  -36.39384       0.26594072    -36.127899      0.029597591    293.91528     -1061.7624      1728         
      1330  -36.401306      0.28508755    -36.116218      0.029597591    315.07619      200.75848      1728         
      1340  -36.37273       0.26452028    -36.108209      0.029597591    292.34542      461.72089      1728         
      1350  -36.344289      0.24434808    -36.099941      0.029597591    270.05128     -1730.9549      1728         
      1360  -36.332922      0.24820136    -36.08472       0.029597591    274.30989      1076.6316      1728         
      1370  -36.332491      0.25460039    -36.07789       0.029597591    281.38204     -826.17644      1728         
      1380  -36.367101      0.29728361    -36.069817      0.029597591    328.55516     -362.64039      1728         
      1390  -36.342485      0.28084253    -36.061642      0.029597591    310.38463      535.29591      1728         
      1400  -36.28736       0.23683781    -36.050522      0.029597591    261.751       -361.46967      1728         
      1410  -36.362536      0.32515119    -36.037385      0.029597591    359.35415     -1019.6026      1728         
      1420  -36.369756      0.34154612    -36.02821       0.029597591    377.47368      1931.1894      1728         
      1430  -36.290967      0.26849905    -36.022468      0.029597591    296.74272     -1147.1626      1728         
      1440  -36.336344      0.31654377    -36.0198        0.029597591    349.84132      1555.5234      1728         
      1450  -36.35003       0.33351338    -36.016516      0.029597591    368.59597      383.34452      1728         
      1460  -36.323791      0.3144873     -36.009304      0.029597591    347.56852     -436.79573      1728         
      1470  -36.396775      0.3875038     -36.009271      0.029597591    428.26569     -125.49965      1728         
      1480  -36.410389      0.40041764    -36.009971      0.029597591    442.53796      569.67439      1728         
      1490  -36.306171      0.2938399     -36.012331      0.029597591    324.7492      -1491.443       1728         
      1500  -36.350723      0.33256027    -36.018163      0.029597591    367.5426       1575.9031      1728         
      1510  -36.349791      0.32964487    -36.020146      0.029597591    364.32053     -1167.8953      1728         
      1520  -36.311717      0.28945439    -36.022263      0.029597591    319.90237     -470.77753      1728         
      1530  -36.325991      0.29991147    -36.026079      0.029597591    331.45944      597.00889      1728         
      1540  -36.324912      0.29447656    -36.030436      0.029597591    325.45283     -678.55719      1728         
      1550  -36.325855      0.29188696    -36.033968      0.029597591    322.59083     -126.58917      1728         
      1560  -36.316095      0.28477821    -36.031317      0.029597591    314.7343       1160.0975      1728         
      1570  -36.267175      0.23502703    -36.032148      0.029597591    259.74975     -1590.1517      1728         
      1580  -36.336879      0.30422123    -36.032658      0.029597591    336.22255      287.92234      1728         
      1590  -36.400226      0.36637213    -36.033854      0.029597591    404.91116      289.6594       1728         
      1600  -36.285059      0.2497741     -36.035285      0.029597591    276.04807     -810.83532      1728         
      1610  -36.28303       0.25068157    -36.032348      0.029597591    277.051        1731.0931      1728         
      1620  -36.372249      0.33884574    -36.033403      0.029597591    374.48924     -4.4960157      1728         
      1630  -36.304951      0.27005082    -36.0349        0.029597591    298.45772     -446.65236      1728         
      1640  -36.303006      0.26759116    -36.035415      0.029597591    295.73933      799.17963      1728         
      1650  -36.379325      0.34170842    -36.037617      0.029597591    377.65305     -517.81213      1728         
      1660  -36.312294      0.28075889    -36.031535      0.029597591    310.29219     -826.41274      1728         
      1670  -36.258893      0.2259194     -36.032973      0.029597591    249.68408      1853.8637      1728         
      1680  -36.30427       0.26904599    -36.035224      0.029597591    297.34719     -1581.6139      1728         
      1690  -36.392612      0.35437345    -36.038239      0.029597591    391.65033      289.90536      1728         
      1700  -36.307172      0.26654205    -36.040629      0.029597591    294.57986     -154.04069      1728         
      1710  -36.27184       0.23238016    -36.03946       0.029597591    256.82445     -897.61775      1728         
      1720  -36.347437      0.30360963    -36.043827      0.029597591    335.54662     -46.833515      1728         
      1730  -36.396218      0.34682536    -36.049393      0.029597591    383.30825      933.38384      1728         
      1740  -36.309704      0.26067925    -36.049025      0.029597591    288.10034     -1859.6706      1728         
      1750  -36.380784      0.32471463    -36.056069      0.029597591    358.87167      1568.0523      1728         
      1760  -36.377225      0.32052689    -36.056698      0.029597591    354.24342     -584.41082      1728         
      1770  -36.316467      0.24879547    -36.067672      0.029597591    274.9665       469.9289       1728         
      1780  -36.272544      0.19582447    -36.07672       0.029597591    216.42343      1296.2796      1728         
      1790  -36.35854       0.27163814    -36.086902      0.029597591    300.21202      227.57787      1728         
      1800  -36.42195       0.32859053    -36.093359      0.029597591    363.15529     -662.63838      1728         
      1810  -36.357996      0.26037586    -36.09762       0.029597591    287.76505      1082.4493      1728         
      1820  -36.290451      0.18588506    -36.104566      0.029597591    205.43849     -1439.0881      1728         
      1830  -36.410925      0.29666902    -36.114256      0.029597591    327.87591      207.75305      1728         
      1840  -36.369313      0.24387734    -36.125435      0.029597591    269.53103      122.19359      1728         
      1850  -36.317105      0.18185284    -36.135252      0.029597591    200.98212     -1071.4388      1728         
      1860  -36.384462      0.24366882    -36.140793      0.029597591    269.30057      236.20886      1728         
      1870  -36.408165      0.25489345    -36.153272      0.029597591    281.70593     -191.46965      1728         
      1880  -36.359115      0.19958013    -36.159535      0.029597591    220.57415     -1088.83        1728         
      1890  -36.442463      0.27294245    -36.169521      0.029597591    301.65353      708.13321      1728         
      1900  -36.419787      0.23908132    -36.180706      0.029597591    264.23051     -154.38341      1728         
      1910  -36.427606      0.24190423    -36.185702      0.029597591    267.35036     -104.3274       1728         
      1920  -36.386866      0.18680877    -36.200058      0.029597591    206.45937      1981.4022      1728         
      1930  -36.384417      0.1697702     -36.214647      0.029597591    187.62848     -341.55945      1728         
      1940  -36.448574      0.22431179    -36.224262      0.029597591    247.90736      359.53162      1728         
      1950  -36.479532      0.24669841    -36.232834      0.029597591    272.64885      164.45627      1728         
      1960  -36.385233      0.15005553    -36.235177      0.029597591    165.84002     -529.08694      1728         
      1970  -36.420482      0.17725709    -36.243225      0.029597591    195.90293     -110.76686      1728         
      1980  -36.408726      0.15597057    -36.252756      0.029597591    172.37726      243.78443      1728         
      1990  -36.374352      0.11545792    -36.258894      0.029597591    127.60305     -1613.6761      1728         
      2000  -36.392752      0.12870528    -36.264046      0.029597591    142.24391      706.51101      1728         
      2010  -36.428644      0.16441541    -36.264228      0.029597591    181.71043     -849.84608      1728         
      2020  -36.426132      0.15942164    -36.26671       0.029597591    176.19136     -156.81226      1728         
      2030  -36.45341       0.18609641    -36.267314      0.029597591    205.67207      266.9974       1728         
      2040  -36.451549      0.18647679    -36.265072      0.029597591    206.09246     -76.480866      1728         
      2050  -36.434839      0.17110965    -36.263729      0.029597591    189.10884     -99.041029      1728         
      2060  -36.385526      0.12332003    -36.262206      0.029597591    136.29218      2099.3722      1728         
      2070  -36.437712      0.17345304    -36.264259      0.029597591    191.69873     -587.12118      1728         
      2080  -36.462872      0.20587334    -36.256998      0.029597591    227.52935      718.39496      1728         
      2090  -36.450364      0.20451178    -36.245852      0.029597591    226.02457      150.3477       1728         
      2100  -36.404963      0.17207445    -36.232889      0.029597591    190.17513     -853.614        1728         
      2110  -36.390823      0.17513322    -36.21569       0.029597591    193.55565     -37.483387      1728         
      2120  -36.407506      0.20502348    -36.202483      0.029597591    226.5901      -88.600112      1728         
      2130  -36.337608      0.15144137    -36.186166      0.029597591    167.37164     -1403.1363      1728         
      2140  -36.328993      0.15986764    -36.169126      0.029597591    176.68427      792.89128      1728         
      2150  -36.401641      0.25132012    -36.150321      0.029597591    277.75673     -787.41232      1728         
      2160  -36.377721      0.2585534     -36.119168      0.029597591    285.75088     -784.72078      1728         
      2170  -36.335442      0.24771533    -36.087727      0.029597591    273.77274      797.18211      1728         
      2180  -36.413742      0.3568299     -36.056912      0.029597591    394.36517     -632.88241      1728         
      2190  -36.363872      0.32453897    -36.039333      0.029597591    358.67753      997.49131      1728         
      2200  -36.225115      0.19527898    -36.029836      0.029597591    215.82056      2228.2369      1728         
      2210  -36.345097      0.3295514     -36.015546      0.029597591    364.21722     -268.37899      1728         
      2220  -36.452562      0.45356819    -35.998994      0.029597591    501.27946     -215.78787      1728         
      2230  -36.343883      0.35877392    -35.98511       0.029597591    396.51369      657.86399      1728         
      2240  -36.266722      0.29084674    -35.975875      0.029597591    321.44119     -1743.2192      1728         
      2250  -36.305297      0.32831363    -35.976984      0.029597591    362.84926      565.98108      1728         
      2260  -36.249984      0.27910819    -35.970876      0.029597591    308.46785     -714.53359      1728         
      2270  -36.206849      0.23807949    -35.968769      0.029597591    263.1233      -1019.6562      1728         
      2280  -36.251239      0.28515054    -35.966088      0.029597591    315.1458       45.039885      1728         
      2290  -36.314925      0.34930191    -35.965623      0.029597591    386.04531     -301.99727      1728         
      2300  -36.371049      0.41017634    -35.960873      0.029597591    453.32318     -1160.8226      1728         
      2310  -36.328271      0.37422577    -35.954045      0.029597591    413.59093      1736.3789      1728         
      2320  -36.234158      0.2796266     -35.954531      0.029597591    309.04079     -253.63739      1728         
      2330  -36.295073      0.32857109    -35.966502      0.029597591    363.1338       1679.0208      1728         
      2340  -36.355424      0.37869697    -35.976727      0.029597591    418.53246      954.59955      1728         
      2350  -36.334789      0.35076329    -35.984026      0.029597591    387.66042     -534.65352      1728         
      2360  -36.375847      0.39142245    -35.984425      0.029597591    432.59655     -265.46143      1728         
      2370  -36.379401      0.37998117    -35.99942       0.029597591    419.95175      636.91374      1728         
      2380  -36.215716      0.20376066    -36.011956      0.029597591    225.19444     -1562.5315      1728         
      2390  -36.309386      0.28312696    -36.026259      0.029597591    312.90935      355.54738      1728         
      2400  -36.304576      0.26519729    -36.039379      0.029597591    293.09364     -1026.3597      1728         
      2410  -36.310298      0.26427992    -36.046018      0.029597591    292.07978     -1079.4816      1728         
      2420  -36.320736      0.26216809    -36.058568      0.029597591    289.7458       538.01041      1728         
      2430  -36.398998      0.32622453    -36.072773      0.029597591    360.5404      -411.86331      1728         
      2440  -36.373794      0.29214248    -36.081651      0.029597591    322.87323     -293.45695      1728         
      2450  -36.412303      0.31994071    -36.092362      0.029597591    353.59558      1354.5393      1728         
      2460  -36.283521      0.17785455    -36.105666      0.029597591    196.56324      429.3502       1728         
      2470  -36.396793      0.27344832    -36.123345      0.029597591    302.21261      803.91597      1728         
      2480  -36.424476      0.29182489    -36.132651      0.029597591    322.52223      701.7438       1728         
      2490  -36.399512      0.25790409    -36.141608      0.029597591    285.03327     -1074.882       1728         
      2500  -36.383104      0.23305274    -36.150051      0.029597591    257.56779      635.42679      1728         
      2510  -36.393092      0.23592367    -36.157168      0.029597591    260.74071     -497.48478      1728         
      2520  -36.336166      0.17070671    -36.165459      0.029597591    188.66351     -1130.1019      1728         
      2530  -36.347439      0.17493544    -36.172504      0.029597591    193.33707      109.06891      1728         
      2540  -36.349545      0.17067351    -36.178872      0.029597591    188.62682     -581.73353      1728         
      2550  -36.382109      0.19871068    -36.183398      0.029597591    219.61324     -673.98106      1728         
      2560  -36.406319      0.22493383    -36.181385      0.029597591    248.59483      856.01165      1728         
      2570  -36.421078      0.24081456    -36.180263      0.029597591    266.14607     -1117.7066      1728         
      2580  -36.421777      0.24288926    -36.178887      0.029597591    268.43902      468.9818       1728         
      2590  -36.34928       0.16777608    -36.181504      0.029597591    185.4246       1217.0392      1728         
      2600  -36.340794      0.15401781    -36.186777      0.029597591    170.21909      482.78241      1728         
      2610  -36.416739      0.23298001    -36.183759      0.029597591    257.4874       549.47469      1728         
      2620  -36.458124      0.28279664    -36.175327      0.029597591    312.54429      620.54381      1728         
      2630  -36.388802      0.22057031    -36.168232      0.029597591    243.77232     -1421.5952      1728         
      2640  -36.360978      0.20118717    -36.15979       0.029597591    222.35024      695.52286      1728         
      2650  -36.354513      0.20158599    -36.152927      0.029597591    222.79101     -795.58242      1728         
      2660  -36.333301      0.19639062    -36.13691       0.029597591    217.04914     -664.35091      1728         
      2670  -36.285379      0.16284212    -36.122536      0.029597591    179.97163      341.12694      1728         
      2680  -36.348066      0.24327054    -36.104795      0.029597591    268.8604      -598.17847      1728         
      2690  -36.356708      0.27915101    -36.077557      0.029597591    308.51517     -885.88985      1728         
      2700  -36.308518      0.26527999    -36.043238      0.029597591    293.18505      860.66965      1728         
      2710  -36.29603       0.29748304    -35.998547      0.029597591    328.77557     -1279.3939      1728         
      2720  -36.363075      0.39950553    -35.963569      0.029597591    441.5299       1029.6043      1728         
      2730  -36.236598      0.3006657     -35.935932      0.029597591    332.29302      1550.4136      1728         
      2740  -36.197352      0.27616676    -35.921185      0.029597591    305.21701      391.56206      1728         
      2750  -36.306263      0.4028964     -35.903367      0.029597591    445.27746      800.93239      1728         
      2760  -36.346826      0.4707489     -35.876077      0.029597591    520.26743      92.366876      1728         
      2770  -36.239458      0.38436598    -35.855092      0.029597591    424.7978      -1318.3023      1728         
      2780  -36.244629      0.39607049    -35.848559      0.029597591    437.73352      833.32766      1728         
      2790  -36.212289      0.36359717    -35.848692      0.029597591    401.8443      -1056.047       1728         
      2800  -36.167457      0.32004012    -35.847417      0.029597591    353.70544     -1112.8007      1728         
      2810  -36.103447      0.26305112    -35.840396      0.029597591    290.72171      231.67325      1728         
      2820  -36.172411      0.33119588    -35.841215      0.029597591    366.03469     -1543.3741      1728         
      2830  -36.324727      0.48068979    -35.844037      0.029597591    531.25401     -341.00201      1728         
      2840  -36.349038      0.50093363    -35.848105      0.029597591    553.62732      760.26275      1728         
      2850  -36.312045      0.45762027    -35.854425      0.029597591    505.75779     -722.51684      1728         
      2860  -36.338219      0.47389736    -35.864322      0.029597591    523.74708      1291.04        1728         
      2870  -36.222126      0.33267943    -35.889446      0.029597591    367.67429      2172.5795      1728         
      2880  -36.299403      0.38379988    -35.915603      0.029597591    424.17216     -437.17791      1728         
      2890  -36.406335      0.46951531    -35.936819      0.029597591    518.90407      993.34256      1728         
      2900  -36.359872      0.39794836    -35.961924      0.029597591    439.80893     -503.2887       1728         
      2910  -36.290251      0.30778628    -35.982464      0.029597591    340.16261     -456.4729       1728         
      2920  -36.223134      0.21842192    -36.004712      0.029597591    241.39793      24.36657       1728         
      2930  -36.224249      0.20234744    -36.021901      0.029597591    223.63257     -1081.8584      1728         
      2940  -36.235486      0.20357523    -36.031911      0.029597591    224.98951     -1272.0418      1728         
      2950  -36.299674      0.25668131    -36.042993      0.029597591    283.68186      388.41376      1728         
      2960  -36.306499      0.25485023    -36.051649      0.029597591    281.65817     -1266.1593      1728         
      2970  -36.394227      0.33459875    -36.059628      0.029597591    369.79551      543.52201      1728         
      2980  -36.420503      0.354041      -36.066462      0.029597591    391.28291      132.97797      1728         
      2990  -36.329444      0.25687167    -36.072572      0.029597591    283.89225      274.53723      1728         
      3000  -36.282002      0.19516526    -36.086837      0.029597591    215.69488      1846.3631      1728         
      3010  -36.425746      0.33090178    -36.094844      0.029597591    365.70966      1013.4911      1728         
      3020  -36.391392      0.29230383    -36.099088      0.029597591    323.05154     -890.79968      1728         
      3030  -36.396272      0.29279435    -36.103478      0.029597591    323.59366      974.32813      1728         
      3040  -36.357429      0.24999256    -36.107437      0.029597591    276.28951     -851.91918      1728         
      3050  -36.309041      0.19568382    -36.113357      0.029597591    216.26799     -635.01245      1728         
      3060  -36.284017      0.17093762    -36.11308       0.029597591    188.91871      50.031442      1728         
      3070  -36.294508      0.17858114    -36.115927      0.029597591    197.36626     -1124.3275      1728         
      3080  -36.289032      0.17169257    -36.117339      0.029597591    189.75308     -490.62064      1728         
      3090  -36.323241      0.20548477    -36.117757      0.029597591    227.0999       606.71257      1728         
      3100  -36.336385      0.22135479    -36.11503       0.029597591    244.63931     -1243.3191      1728         
      3110  -36.382885      0.28131785    -36.101568      0.029597591    310.90994      455.38449      1728         
      3120  -36.384197      0.29154137    -36.092656      0.029597591    322.20889      315.91191      1728         
      3130  -36.299078      0.20853169    -36.090547      0.029597591    230.46734      247.77809      1728         
      3140  -36.284224      0.19226449    -36.09196       0.029597591    212.48897      1991.3683      1728         
      3150  -36.392969      0.30379781    -36.089171      0.029597591    335.75459      202.95498      1728         
      3160  -36.413911      0.3439302     -36.069981      0.029597591    380.10855     -571.86872      1728         
      3170  -36.340431      0.28143187    -36.058999      0.029597591    311.03596      507.34605      1728         
      3180  -36.321511      0.27170652    -36.049805      0.029597591    300.28759     -866.02917      1728         
      3190  -36.326188      0.28389902    -36.042289      0.029597591    313.76263     -718.98648      1728         
      3200  -36.261601      0.22603528    -36.035566      0.029597591    249.81215      628.15904      1728         
      3210  -36.232127      0.20965994    -36.022467      0.029597591    231.71426     -1393.3827      1728         
      3220  -36.314045      0.30241906    -36.011626      0.029597591    334.23081      96.062468      1728         
      3230  -36.294106      0.29835449    -35.995751      0.029597591    329.73869     -89.229875      1728         
      3240  -36.281985      0.31209578    -35.969889      0.029597591    344.92543     -1118.6785      1728         
      3250  -36.316672      0.37945006    -35.937222      0.029597591    419.36477      587.77356      1728         
      3260  -36.264043      0.36727134    -35.896771      0.029597591    405.90496      796.70433      1728         
      3270  -36.163679      0.29628997    -35.867389      0.029597591    327.45699      117.54149      1728         
      3280  -36.207771      0.37057608    -35.837195      0.029597591    409.55733      2255.2347      1728         
      3290  -36.207387      0.40525702    -35.80213       0.029597591    447.88639     -449.14592      1728         
      3300  -36.28028       0.52110206    -35.759177      0.029597591    575.91728     -349.55422      1728         
      3310  -36.215142      0.50968001    -35.705462      0.029597591    563.29374      670.55407      1728         
      3320  -36.117359      0.43231655    -35.685043      0.029597591    477.79234     -670.84244      1728         
      3330  -36.146827      0.47477536    -35.672052      0.029597591    524.71743     -671.6524       1728         
      3340  -36.162051      0.49880682    -35.663244      0.029597591    551.27678      145.1746       1728         
      3350  -35.967713      0.30970349    -35.658009      0.029597591    342.28149     -2093.7806      1728         
      3360  -36.110621      0.45652111    -35.6541        0.029597591    504.543        99.652111      1728         
      3370  -36.229661      0.56958982    -35.660072      0.029597591    629.50552     -650.51979      1728         
      3380  -36.177818      0.50094907    -35.676869      0.029597591    553.64438     -669.85051      1728         
      3390  -36.260601      0.56580135    -35.694799      0.029597591    625.31853      902.22884      1728         
      3400  -36.317217      0.59577436    -35.721443      0.029597591    658.44443     -4.4570688      1728         
      3410  -36.127746      0.37212062    -35.755626      0.029597591    411.26434      790.6688       1728         
      3420  -36.139558      0.3514981     -35.78806       0.029597591    388.47252      2393.1053      1728         
      3430  -36.228953      0.41179352    -35.81716       0.029597591    455.11047     -510.0238       1728         
      3440  -36.322825      0.48338829    -35.839436      0.029597591    534.23636     -174.59455      1728         
      3450  -36.247321      0.38790962    -35.859411      0.029597591    428.7142       944.56082      1728         
      3460  -36.173686      0.29733517    -35.876351      0.029597591    328.61214     -1360.6441      1728         
      3470  -36.192678      0.2998223     -35.892855      0.029597591    331.36089     -251.16681      1728         
      3480  -36.182976      0.27831247    -35.904663      0.029597591    307.58842     -192.48093      1728         
      3490  -36.108179      0.19757364    -35.910605      0.029597591    218.3566      -1673.2406      1728         
      3500  -36.185906      0.26773858    -35.918168      0.029597591    295.90226      303.49606      1728         
      3510  -36.295333      0.37304885    -35.922284      0.029597591    412.29021     -259.89892      1728         
      3520  -36.332263      0.40359191    -35.928671      0.029597591    446.04612     -1200.311       1728         
      3530  -36.302226      0.36742086    -35.934805      0.029597591    406.07021      1348.2077      1728         
      3540  -36.322923      0.38172815    -35.941195      0.029597591    421.8825      -106.13677      1728         
      3550  -36.26333       0.30179897    -35.961531      0.029597591    333.54549      1260.4026      1728         
      3560  -36.274957      0.30037568    -35.974581      0.029597591    331.97249      1894.0504      1728         
      3570  -36.356811      0.36812876    -35.988682      0.029597591    406.85258     -553.09039      1728         
      3580  -36.408663      0.40637025    -36.002292      0.029597591    449.11672     -408.18945      1728         
      3590  -36.250443      0.23856749    -36.011875      0.029597591    263.66263      870.79677      1728         
      3600  -36.2527        0.2272551     -36.025445      0.029597591    251.16028     -1664.7143      1728         
      3610  -36.275519      0.24279444    -36.032724      0.029597591    268.33422      192.24078      1728         
      3620  -36.252884      0.2105564     -36.042327      0.029597591    232.70503     -419.92985      1728         
      3630  -36.194458      0.14666233    -36.047795      0.029597591    162.08989     -1143.7796      1728         
      3640  -36.290112      0.23530258    -36.054809      0.029597591    260.05429      263.82258      1728         
      3650  -36.309002      0.24702216    -36.06198       0.029597591    273.00665     -296.6727       1728         
      3660  -36.339955      0.28309736    -36.056858      0.029597591    312.87664     -1067.3824      1728         
      3670  -36.337504      0.27816427    -36.059339      0.029597591    307.42464      1339.7597      1728         
      3680  -36.336617      0.27504549    -36.061571      0.029597591    303.97779     -131.86221      1728         
      3690  -36.298083      0.22544111    -36.072641      0.029597591    249.15548      1209.0393      1728         
      3700  -36.324832      0.24445699    -36.080375      0.029597591    270.17166      1459.7513      1728         
      3710  -36.380709      0.30323407    -36.077475      0.029597591    335.13155     -650.43473      1728         
      3720  -36.428525      0.3474886     -36.081036      0.029597591    384.04125     -117.67255      1728         
      3730  -36.350119      0.26615312    -36.083966      0.029597591    294.15002      197.03193      1728         
      3740  -36.279008      0.1913071     -36.087701      0.029597591    211.43088     -1108.255       1728         
      3750  -36.303155      0.21037183    -36.092783      0.029597591    232.50105      357.3707       1728         
      3760  -36.296825      0.20371779    -36.093107      0.029597591    225.14706     -307.64093      1728         
      3770  -36.258512      0.1640505     -36.094461      0.029597591    181.30713     -1170.0064      1728         
      3780  -36.29309       0.1977413     -36.095348      0.029597591    218.5419       685.67948      1728         
      3790  -36.323517      0.22920053    -36.094316      0.029597591    253.31035     -904.22368      1728         
      3800  -36.304789      0.21322247    -36.091566      0.029597591    235.65155     -314.53535      1728         
      3810  -36.313695      0.23316895    -36.080526      0.029597591    257.69621      865.96042      1728         
      3820  -36.303659      0.23201554    -36.071643      0.029597591    256.42148     -267.73827      1728         
      3830  -36.263183      0.1951893     -36.067994      0.029597591    215.72145      617.19306      1728         
      3840  -36.272452      0.20652958    -36.065923      0.029597591    228.25462      1631.0178      1728         
      3850  -36.283546      0.22892933    -36.054617      0.029597591    253.01063     -886.89492      1728         
      3860  -36.298417      0.26764916    -36.030768      0.029597591    295.80343      920.11511      1728         
      3870  -36.332885      0.3226446     -36.01024       0.029597591    356.58389     -53.53178       1728         
      3880  -36.285164      0.30133085    -35.983834      0.029597591    333.02813     -968.38247      1728         
      3890  -36.20986       0.25077466    -35.959085      0.029597591    277.15389      371.24271      1728         
      3900  -36.228929      0.28833666    -35.940593      0.029597591    318.66707     -385.68196      1728         
      3910  -36.171029      0.25570613    -35.915323      0.029597591    282.6041      -1563.4372      1728         
      3920  -36.14634       0.25434114    -35.891999      0.029597591    281.09553      1015.9224      1728         
      3930  -36.196292      0.32739365    -35.868899      0.029597591    361.8325      -1382.8492      1728         
      3940  -36.257458      0.4111614     -35.846297      0.029597591    454.41186     -339.96505      1728         
      3950  -36.275285      0.45744228    -35.817843      0.029597591    505.56107      721.26646      1728         
      3960  -36.270667      0.48112754    -35.789539      0.029597591    531.7378      -769.18802      1728         
      3970  -36.181305      0.4054706     -35.775834      0.029597591    448.12244      839.60958      1728         
      3980  -36.115891      0.33849773    -35.777393      0.029597591    374.10463      2354.9749      1728         
      3990  -36.173359      0.39152329    -35.781835      0.029597591    432.708       -374.91913      1728         
      4000  -36.260935      0.4796342     -35.781301      0.029597591    530.08738      917.93285      1728         
      4010  -36.223086      0.44611078    -35.776975      0.029597591    493.03759      435.75044      1728         
      4020  -36.202918      0.41692231    -35.785995      0.029597591    460.77876     -1382.3723      1728         
      4030  -36.090551      0.28903044    -35.80152       0.029597591    319.43382      733.3434       1728         
      4040  -36.09726       0.28208049    -35.815179      0.029597591    311.7528      -940.44961      1728         
      4050  -36.087238      0.26323043    -35.824007      0.029597591    290.91989     -1247.4239      1728         
      4060  -36.085364      0.2562741     -35.82909       0.029597591    283.23182      296.87155      1728         
      4070  -36.077978      0.23952132    -35.838457      0.029597591    264.71679     -1140.8435      1728         
      4080  -36.183594      0.33440362    -35.849191      0.029597591    369.57986     -718.6101       1728         
      4090  -36.193881      0.33157291    -35.862308      0.029597591    366.45138      1079.9292      1728         
      4100  -36.240478      0.36876055    -35.871717      0.029597591    407.55082     -1375.0586      1728         
      4110  -36.299518      0.41802127    -35.881496      0.029597591    461.99333      920.8273       1728         
      4120  -36.220164      0.32217846    -35.897985      0.029597591    356.06872      1158.3221      1728         
      4130  -36.156902      0.23536651    -35.921535      0.029597591    260.12493      793.78037      1728         
      4140  -36.318174      0.37205141    -35.946123      0.029597591    411.18785      993.14614      1728         
      4150  -36.352771      0.39151028    -35.961261      0.029597591    432.69361      356.29465      1728         
      4160  -36.318146      0.34281333    -35.975332      0.029597591    378.87419     -1280.4396      1728         
      4170  -36.308086      0.31510781    -35.992978      0.029597591    348.25431      958.2963       1728         
      4180  -36.233494      0.22313355    -36.01036       0.029597591    246.60518     -1149.8504      1728         
      4190  -36.246002      0.22460507    -36.021397      0.029597591    248.23149     -405.98422      1728         
      4200  -36.262462      0.23069808    -36.031764      0.029597591    254.96544      99.357103      1728         
      4210  -36.20683       0.17259979    -36.03423       0.029597591    190.75572     -799.71228      1728         
      4220  -36.243737      0.20527207    -36.038465      0.029597591    226.86483     -163.92985      1728         
      4230  -36.337544      0.2962338     -36.04131       0.029597591    327.39491      502.12831      1728         
      4240  -36.241295      0.20107295    -36.040222      0.029597591    222.224       -1111.2912      1728         
      4250  -36.258375      0.21765511    -36.04072       0.029597591    240.55046      957.58104      1728         
      4260  -36.292144      0.2604529     -36.031691      0.029597591    287.85019      236.74448      1728         
      4270  -36.236171      0.2019322     -36.034239      0.029597591    223.17364      4.8866294      1728         
      4280  -36.185484      0.14795166    -36.037532      0.029597591    163.51484      1424.2537      1728         
      4290  -36.309365      0.27167035    -36.037694      0.029597591    300.24761      20.586755      1728         
      4300  -36.297352      0.26666329    -36.030688      0.029597591    294.71385     -384.72741      1728         
      4310  -36.270078      0.24958919    -36.020489      0.029597591    275.84372      811.77991      1728         
      4320  -36.262539      0.24685115    -36.015687      0.029597591    272.81766     -672.10587      1728         
      4330  -36.325491      0.31251733    -36.012974      0.029597591    345.39132     -491.37487      1728         
      4340  -36.246965      0.23537508    -36.01159       0.029597591    260.13441      463.62039      1728         
      4350  -36.206238      0.19585441    -36.010383      0.029597591    216.45652     -1363.3795      1728         
      4360  -36.270197      0.26675324    -36.003444      0.029597591    294.81327      37.003304      1728         
      4370  -36.339121      0.33762004    -36.001501      0.029597591    373.13461     -106.76859      1728         
      4380  -36.242072      0.24507144    -35.997001      0.029597591    270.85074     -846.28921      1728         
      4390  -36.279323      0.28768399    -35.991639      0.029597591    317.94574      522.36293      1728         
      4400  -36.335535      0.34998186    -35.985554      0.029597591    386.79679      287.83055      1728         
      4410  -36.218259      0.24190328    -35.976356      0.029597591    267.34931     -305.23764      1728         
      4420  -36.12142       0.14167633    -35.979743      0.029597591    156.5794       2203.9716      1728         
      4430  -36.275115      0.29064393    -35.984471      0.029597591    321.21704      57.965436      1728         
      4440  -36.285774      0.30561791    -35.980156      0.029597591    337.76615     -152.36582      1728         
      4450  -36.181859      0.21205046    -35.969808      0.029597591    234.35625      912.00898      1728         
      4460  -36.246273      0.28915601    -35.957117      0.029597591    319.57261     -574.52173      1728         
      4470  -36.268674      0.31250727    -35.956167      0.029597591    345.38021     -574.54474      1728         
      4480  -36.133084      0.1802453     -35.952838      0.029597591    199.20548      646.628        1728         
      4490  -36.088953      0.13833516    -35.950617      0.029597591    152.88677     -1537.139       1728         
      4500  -36.183838      0.23872867    -35.94511       0.029597591    263.84077     -38.225698      1728         
      4510  -36.138864      0.20607009    -35.932794      0.029597591    227.7468      -393.47645      1728         
      4520  -36.109223      0.18565661    -35.923566      0.029597591    205.18601     -1141.9484      1728         
      4530  -36.197422      0.29108837    -35.906334      0.029597591    321.70824      472.15456      1728         
      4540  -36.280293      0.39741493    -35.882879      0.029597591    439.21938     -40.573064      1728         
      4550  -36.239943      0.39247079    -35.847472      0.029597591    433.75517     -645.53475      1728         
      4560  -36.195718      0.39386325    -35.801855      0.029597591    435.29411      1691.7902      1728         
      4570  -36.104247      0.31974771    -35.784499      0.029597591    353.38228      984.92907      1728         
      4580  -36.264619      0.49343985    -35.771179      0.029597591    545.34526      1069.1442      1728         
      4590  -36.285092      0.54237244    -35.74272       0.029597591    599.42512      933.76337      1728         
      4600  -36.215496      0.50199105    -35.713505      0.029597591    554.79597     -926.17451      1728         
      4610  -36.267265      0.56982914    -35.697436      0.029597591    629.77001      162.91297      1728         
      4620  -36.118665      0.41810761    -35.700557      0.029597591    462.08875      64.258396      1728         
      4630  -36.026085      0.31774842    -35.708336      0.029597591    351.17268     -1587.3376      1728         
      4640  -36.09636       0.37856278    -35.717797      0.029597591    418.38416      227.65225      1728         
      4650  -36.09359       0.36018839    -35.733401      0.029597591    398.07695     -665.08344      1728         
      4660  -36.03439       0.29279284    -35.741597      0.029597591    323.59199     -1074.1611      1728         
      4670  -36.189145      0.42359218    -35.765553      0.029597591    468.15025      653.41609      1728         
      4680  -36.192076      0.39317947    -35.798896      0.029597591    434.5384      -1056.6979      1728         
      4690  -36.249268      0.4132886     -35.83598       0.029597591    456.76282     -51.620514      1728         
      4700  -36.299655      0.4260394     -35.873615      0.029597591    470.85489      761.30532      1728         
      4710  -36.334319      0.4171885     -35.91713       0.029597591    461.07296     -424.48583      1728         
      4720  -36.210027      0.24273817    -35.967288      0.029597591    268.27203      1543.0809      1728         
      4730  -36.328134      0.32572282    -36.002411      0.029597591    359.98591      1717.8991      1728         
      4740  -36.31358       0.27563279    -36.037947      0.029597591    304.62687     -999.77436      1728         
      4750  -36.307952      0.25630193    -36.05165       0.029597591    283.26257      756.52584      1728         
      4760  -36.287251      0.231203      -36.056048      0.029597591    255.52346     -121.98394      1728         
      4770  -36.286601      0.22179095    -36.06481       0.029597591    245.12136     -644.11032      1728         
      4780  -36.218591      0.1441288     -36.074462      0.029597591    159.28985      351.95556      1728         
      4790  -36.243277      0.16316772    -36.08011       0.029597591    180.33148     -442.9051       1728         
      4800  -36.204518      0.12199289    -36.082525      0.029597591    134.82543     -1173.3075      1728         
      4810  -36.199243      0.1209211     -36.078322      0.029597591    133.6409       672.87709      1728         
      4820  -36.218608      0.1410768     -36.077532      0.029597591    155.9168      -1406.1417      1728         
      4830  -36.285771      0.20935003    -36.076421      0.029597591    231.37176      220.86951      1728         
      4840  -36.266813      0.19352126    -36.073292      0.029597591    213.87795      625.02996      1728         
      4850  -36.232088      0.16793855    -36.06415       0.029597591    185.60417     -427.25632      1728         
      4860  -36.262721      0.21549126    -36.04723       0.029597591    238.159        132.70408      1728         
      4870  -36.22955       0.19024076    -36.039309      0.029597591    210.25236      1075.2072      1728         
      4880  -36.185162      0.14432963    -36.040833      0.029597591    159.51181     -66.699074      1728         
      4890  -36.241655      0.20255508    -36.0391        0.029597591    223.86204      1443.037       1728         
      4900  -36.252067      0.22894404    -36.023123      0.029597591    253.02689     -94.28611       1728         
      4910  -36.243197      0.24223292    -36.000964      0.029597591    267.71363     -245.34735      1728         
      4920  -36.202254      0.22024759    -35.982006      0.029597591    243.41564      733.83678      1728         
      4930  -36.209505      0.23873531    -35.97077       0.029597591    263.84811     -753.18226      1728         
      4940  -36.249335      0.29163335    -35.957701      0.029597591    322.31054     -894.03523      1728         
      4950  -36.104154      0.15760328    -35.946551      0.029597591    174.18172      628.92898      1728         
      4960  -36.083966      0.15139526    -35.93257       0.029597591    167.32067     -1324.9983      1728         
      4970  -36.18654       0.26547502    -35.921065      0.029597591    293.40059     -144.07955      1728         
      4980  -36.192         0.28636486    -35.905635      0.029597591    316.48785     -258.05938      1728         
      4990  -36.179736      0.29018068    -35.889556      0.029597591    320.70506     -1094.8814      1728         
      5000  -36.291652      0.4213401     -35.870311      0.029597591    465.66126      772.80089      1728         
      5010  -36.271625      0.42874959    -35.842875      0.029597591    473.85017      248.04287      1728         
      5020  -36.261119      0.43884868    -35.822271      0.029597591    485.01159     -46.69205       1728         
      5030  -36.065319      0.23589446    -35.829425      0.029597591    260.70842      2556.4555      1728         
      5040  -36.257656      0.42044137    -35.837215      0.029597591    464.668        984.49614      1728         
      5050  -36.287874      0.44881179    -35.839062      0.029597591    496.02273     -1081.2018      1728         
      5060  -36.232701      0.41153282    -35.821168      0.029597591    454.82235      1509.5558      1728         
      5070  -36.15694       0.31840862    -35.838531      0.029597591    351.90232     -1063.3639      1728         
      5080  -36.148061      0.29738188    -35.850679      0.029597591    328.66376     -120.23198      1728         
      5090  -36.101432      0.23993113    -35.861501      0.029597591    265.16971     -360.26445      1728         
      5100  -36.014172      0.14538896    -35.868783      0.029597591    160.68256     -953.05418      1728         
      5110  -36.049575      0.17995832    -35.869617      0.029597591    198.88831     -839.60558      1728         
      5120  -36.122922      0.24680878    -35.876114      0.029597591    272.77083      363.40619      1728         
      5130  -36.157404      0.27359671    -35.883807      0.029597591    302.37661     -1591.3175      1728         
      5140  -36.196953      0.30215374    -35.894799      0.029597591    333.93758      1230.4593      1728         
      5150  -36.231752      0.32832876    -35.903423      0.029597591    362.86597     -545.77129      1728         
      5160  -36.222253      0.32399612    -35.898257      0.029597591    358.07759     -164.95242      1728         
      5170  -36.165058      0.25068606    -35.914372      0.029597591    277.05596      1237.5825      1728         
      5180  -36.115201      0.18126418    -35.933936      0.029597591    200.33154      1827.8796      1728         
      5190  -36.284646      0.32640066    -35.958246      0.029597591    360.73506     -207.99377      1728         
      5200  -36.248909      0.27573869    -35.97317       0.029597591    304.74391      1223.552       1728         
      5210  -36.261185      0.28133234    -35.979853      0.029597591    310.92595     -946.89881      1728         
      5220  -36.261286      0.2613996     -35.999886      0.029597591    288.89647      260.91933      1728         
      5230  -36.266725      0.23849062    -36.028235      0.029597591    263.57768     -433.90295      1728         
      5240  -36.21581       0.16539701    -36.050413      0.029597591    182.79528     -846.88697      1728         
      5250  -36.220576      0.15392852    -36.066648      0.029597591    170.1204      -330.21146      1728         
      5260  -36.258436      0.18123151    -36.077204      0.029597591    200.29543     -65.933025      1728         
      5270  -36.30761       0.21266405    -36.094946      0.029597591    235.03438     -1173.5693      1728         
      5280  -36.287224      0.17351668    -36.113707      0.029597591    191.76907      815.11808      1728         
      5290  -36.324528      0.20431893    -36.120209      0.029597591    225.81143     -295.74242      1728         
      5300  -36.331383      0.20783847    -36.123545      0.029597591    229.7012      -421.57825      1728         
      5310  -36.257046      0.13469435    -36.122351      0.029597591    148.86298      1107.1542      1728         
      5320  -36.255141      0.11935122    -36.13579       0.029597591    131.90589      893.27717      1728         
      5330  -36.320304      0.17417486    -36.14613       0.029597591    192.49648      594.42126      1728         
      5340  -36.312145      0.16478596    -36.147359      0.029597591    182.11995      248.42814      1728         
      5350  -36.308461      0.16865917    -36.139802      0.029597591    186.40059     -475.42211      1728         
      5360  -36.335131      0.20627829    -36.128853      0.029597591    227.9769       45.751166      1728         
      5370  -36.312165      0.18703915    -36.125125      0.029597591    206.71397      551.43714      1728         
      5380  -36.277512      0.15051332    -36.126999      0.029597591    166.34596     -1245.255       1728         
      5390  -36.271592      0.1457969     -36.125795      0.029597591    161.13342      179.53816      1728         
      5400  -36.316247      0.19250962    -36.123738      0.029597591    212.75989     -1003.6817      1728         
      5410  -36.261498      0.14570477    -36.115793      0.029597591    161.03159     -503.29736      1728         
      5420  -36.304681      0.19243092    -36.11225       0.029597591    212.67291      342.0228       1728         
      5430  -36.315982      0.21107237    -36.10491       0.029597591    233.27527      299.60622      1728         
      5440  -36.261254      0.16348144    -36.097773      0.029597591    180.67821     -362.7312       1728         
      5450  -36.255056      0.17061949    -36.084436      0.029597591    188.56712      880.26137      1728         
      5460  -36.246318      0.17604798    -36.07027       0.029597591    194.56664     -645.60288      1728         
      5470  -36.205093      0.129716      -36.075377      0.029597591    143.36095      1393.428       1728         
      5480  -36.285875      0.21068953    -36.075185      0.029597591    232.85216      355.32842      1728         
      5490  -36.18851       0.12613572    -36.062374      0.029597591    139.40405     -166.81525      1728         
      5500  -36.260164      0.21045743    -36.049707      0.029597591    232.59565      198.81273      1728         
      5510  -36.242214      0.20997316    -36.032241      0.029597591    232.06044      517.08261      1728         
      5520  -36.203463      0.18468767    -36.018775      0.029597591    204.11514     -1030.7506      1728         
      5530  -36.281796      0.27984162    -36.001954      0.029597591    309.27843      849.48821      1728         
      5540  -36.197555      0.2028348     -35.994721      0.029597591    224.17119     -851.53763      1728         
      5550  -36.200524      0.2136194     -35.986904      0.029597591    236.09023     -477.77545      1728         
      5560  -36.219961      0.24922169    -35.97074       0.029597591    275.43756      95.828433      1728         
      5570  -36.1997        0.2419042     -35.957796      0.029597591    267.35033     -1043.0496      1728         
      5580  -36.236362      0.28880491    -35.947557      0.029597591    319.18457     -106.08829      1728         
      5590  -36.298296      0.36561169    -35.932684      0.029597591    404.07073      814.04666      1728         
      5600  -36.12241       0.20196767    -35.920443      0.029597591    223.21285     -443.90398      1728         
      5610  -36.212637      0.3103601     -35.902277      0.029597591    343.00718      527.14519      1728         
      5620  -36.201131      0.31961747    -35.881514      0.029597591    353.23834      266.25019      1728         
      5630  -36.121738      0.23543522    -35.886303      0.029597591    260.20088     -344.55423      1728         
      5640  -36.165296      0.27684374    -35.888452      0.029597591    305.9652       1558.6837      1728         
      5650  -36.16337       0.28292418    -35.880446      0.029597591    312.68524     -359.89533      1728         
      5660  -36.157883      0.2928747     -35.865009      0.029597591    323.68247     -451.61857      1728         
      5670  -36.12038       0.2627189     -35.857661      0.029597591    290.35455      772.50534      1728         
      5680  -36.05549       0.20183552    -35.853655      0.029597591    223.0668      -551.79354      1728         
      5690  -36.255974      0.40673047    -35.849244      0.029597591    449.51484     -944.28208      1728         
      5700  -36.09138       0.24936846    -35.842011      0.029597591    275.59977      1926.2447      1728         
      5710  -36.073543      0.23932425    -35.834219      0.029597591    264.49899     -1065.6927      1728         
      5720  -36.232296      0.40083213    -35.831464      0.029597591    442.99605      1071.236       1728         
      5730  -36.155264      0.32375512    -35.831509      0.029597591    357.81123      297.0363       1728         
      5740  -36.123086      0.28788389    -35.835202      0.029597591    318.16667     -1186.1525      1728         
      5750  -36.135895      0.2949325     -35.840963      0.029597591    325.95674     -331.99364      1728         
      5760  -36.151693      0.30812988    -35.843563      0.029597591    340.54235      160.16801      1728         
      5770  -36.115706      0.26568628    -35.85002       0.029597591    293.63407     -1777.6992      1728         
      5780  -36.144861      0.27931176    -35.865549      0.029597591    308.69283      1782.5122      1728         
      5790  -36.105205      0.23173274    -35.873472      0.029597591    256.10893     -508.83452      1728         
      5800  -36.238851      0.35556765    -35.883283      0.029597591    392.97015     -189.51866      1728         
      5810  -36.057333      0.16289637    -35.894437      0.029597591    180.0316       923.21148      1728         
      5820  -36.117273      0.21028065    -35.906992      0.029597591    232.40027     -263.36447      1728         
      5830  -36.197341      0.2723628     -35.924978      0.029597591    301.01291     -631.41906      1728         
      5840  -36.089576      0.14796154    -35.941614      0.029597591    163.52575      1031.2998      1728         
      5850  -36.158196      0.19667275    -35.961524      0.029597591    217.36094     -854.91113      1728         
      5860  -36.280961      0.29185458    -35.989106      0.029597591    322.55504      761.73012      1728         
      5870  -36.137356      0.1303887     -36.006967      0.029597591    144.10441      724.10099      1728         
      5880  -36.231227      0.20683848    -36.024388      0.029597591    228.59602     -719.10323      1728         
      5890  -36.241526      0.19638938    -36.045137      0.029597591    217.04776      254.74465      1728         
      5900  -36.298301      0.23987218    -36.058428      0.029597591    265.10457     -106.65099      1728         
      5910  -36.26233       0.19656117    -36.065769      0.029597591    217.23763     -1002.4984      1728         
      5920  -36.292269      0.21824341    -36.074026      0.029597591    241.20065      606.17697      1728         
      5930  -36.34964       0.26405505    -36.085585      0.029597591    291.83125      226.46403      1728         
      5940  -36.295694      0.19329459    -36.102399      0.029597591    213.62743      142.60507      1728         
      5950  -36.363787      0.24801284    -36.115775      0.029597591    274.10155      870.85112      1728         
      5960  -36.303308      0.19014783    -36.11316       0.029597591    210.14967     -803.93529      1728         
      5970  -36.256598      0.14401028    -36.112588      0.029597591    159.15886     -175.77843      1728         
      5980  -36.2619        0.15111764    -36.110782      0.029597591    167.01385      126.35064      1728         
      5990  -36.245299      0.13668908    -36.10861       0.029597591    151.06754     -890.2581       1728         
      6000  -36.28041       0.17115312    -36.109257      0.029597591    189.15688     -57.361438      1728         
      6010  -36.285055      0.18463837    -36.100417      0.029597591    204.06065      1076.3691      1728         
      6020  -36.191407      0.091904025   -36.099503      0.029597591    101.5715      -290.20216      1728         
      6030  -36.300154      0.20126482    -36.098889      0.029597591    222.43606      1005.5028      1728         
      6040  -36.289584      0.19665874    -36.092925      0.029597591    217.34546     -442.3972       1728         
      6050  -36.293005      0.20763273    -36.085372      0.029597591    229.47382     -817.19079      1728         
      6060  -36.29399       0.22722954    -36.066761      0.029597591    251.13203      352.58189      1728         
      6070  -36.273293      0.21695075    -36.056342      0.029597591    239.772        320.21354      1728         
      6080  -36.268551      0.22180227    -36.046748      0.029597591    245.13386     -800.29945      1728         
      6090  -36.290317      0.25623714    -36.03408       0.029597591    283.19097      853.43346      1728         
      6100  -36.212962      0.18992634    -36.023036      0.029597591    209.90487     -1329.1717      1728         
      6110  -36.316734      0.30757571    -36.009158      0.029597591    339.92989     -143.54879      1728         
      6120  -36.21275       0.2213024     -35.991447      0.029597591    244.58141      442.3668       1728         
      6130  -36.169258      0.18561461    -35.983644      0.029597591    205.13959      395.08558      1728         
      6140  -36.210934      0.22680044    -35.984133      0.029597591    250.65779      882.06398      1728         
      6150  -36.266127      0.28153922    -35.984588      0.029597591    311.1546       710.97666      1728         
      6160  -36.176518      0.21325693    -35.963261      0.029597591    235.68964     -1354.7383      1728         
      6170  -36.208959      0.26639068    -35.942569      0.029597591    294.41257      1307.5274      1728         
      6180  -36.280656      0.34727008    -35.933386      0.029597591    383.79975     -20.017383      1728         
      6190  -36.186771      0.25561088    -35.93116       0.029597591    282.49883     -907.80199      1728         
      6200  -36.133342      0.209197      -35.924145      0.029597591    231.20263      417.89485      1728         
      6210  -36.159316      0.24440317    -35.914913      0.029597591    270.11217     -856.32115      1728         
      6220  -36.164052      0.25445924    -35.909593      0.029597591    281.22606     -1286.6031      1728         
      6230  -36.053329      0.14716536    -35.906164      0.029597591    162.64582      724.133        1728         
      6240  -36.136947      0.23510457    -35.901842      0.029597591    259.83544     -1360.0222      1728         
      6250  -36.215639      0.31948624    -35.896153      0.029597591    353.0933      -86.67167       1728         
      6260  -36.266018      0.38081351    -35.885205      0.029597591    420.87164      378.96008      1728         
      6270  -36.178626      0.30151192    -35.877114      0.029597591    333.22825     -843.79672      1728         
      6280  -36.267481      0.40470583    -35.862775      0.029597591    447.27722      559.70127      1728         
      6290  -36.228699      0.38014276    -35.848556      0.029597591    420.13034      500.12379      1728         
      6300  -36.177319      0.3163415     -35.860977      0.029597591    349.61776      841.98693      1728         
      6310  -36.214077      0.34630773    -35.867769      0.029597591    382.73617      1782.8817      1728         
      6320  -36.368866      0.49458054    -35.874285      0.029597591    546.60594     -416.66162      1728         
      6330  -36.226934      0.36114307    -35.865791      0.029597591    399.13206     -974.07522      1728         
      6340  -36.236341      0.3708396     -35.865502      0.029597591    409.84857      1708.781       1728         
      6350  -36.211911      0.32750021    -35.88441       0.029597591    361.95027     -1673.0424      1728         
      6360  -36.231509      0.34359738    -35.887912      0.029597591    379.74072     -80.051059      1728         
      6370  -36.085917      0.19123246    -35.894685      0.029597591    211.34839      227.75838      1728         
[...]
    219800  -34.597584      0.11611379    -34.481471      0.029597591    128.32791     -1801.4422      1728         
    219810  -34.642647      0.1667512     -34.475896      0.029597591    184.29192      949.86231      1728         
    219820  -34.645614      0.16193854    -34.483675      0.029597591    178.97301      18.166417      1728         
    219830  -34.631812      0.15211653    -34.479696      0.029597591    168.11782      2193.1907      1728         
    219840  -34.580102      0.10787148    -34.47223       0.029597591    119.21858      400.09678      1728         
    219850  -34.680865      0.21581318    -34.465052      0.029597591    238.51477      1682.2665      1728         
    219860  -34.614008      0.15444559    -34.459562      0.029597591    170.69187     -1087.9919      1728         
    219870  -34.679334      0.22877014    -34.450564      0.029597591    252.83469      28.602105      1728         
    219880  -34.642561      0.20253103    -34.44003       0.029597591    223.83546     -1543.7681      1728         
    219890  -34.612089      0.18350079    -34.428588      0.029597591    202.80341      322.70901      1728         
    219900  -34.597503      0.18037932    -34.417123      0.029597591    199.35359     -1289.2452      1728         
    219910  -34.693895      0.29898829    -34.394906      0.029597591    330.43915     -382.26173      1728         
    219920  -34.581267      0.20521069    -34.376056      0.029597591    226.797       -505.64957      1728         
    219930  -34.66883       0.31248829    -34.356341      0.029597591    345.35924     -1111.7916      1728         
    219940  -34.659551      0.32190535    -34.337645      0.029597591    355.76688      1337.9827      1728         
    219950  -34.53655       0.21617242    -34.320378      0.029597591    238.9118       1033.7902      1728         
    219960  -34.611468      0.31772153    -34.293746      0.029597591    351.14296      1406.4853      1728         
    219970  -34.594699      0.32026719    -34.274432      0.029597591    353.9564       767.56047      1728         
    219980  -34.547712      0.28130936    -34.266403      0.029597591    310.90056      301.86093      1728         
    219990  -34.593555      0.34014776    -34.253407      0.029597591    375.92823     -1569.2612      1728         
    220000  -34.544837      0.30044657    -34.244391      0.029597591    332.05083      228.4173       1728         
    220010  -34.429731      0.19720288    -34.232528      0.029597591    217.94684     -1546.5088      1728         
    220020  -34.602916      0.37560007    -34.227316      0.029597591    415.1098       600.7821       1728         
    220030  -34.444437      0.22484753    -34.219589      0.029597591    248.49945     -1468.3939      1728         
    220040  -34.471278      0.25559856    -34.21568       0.029597591    282.48522      547.02546      1728         
    220050  -34.555405      0.34336357    -34.212042      0.029597591    379.48231     -1057.5614      1728         
    220060  -34.5414        0.33283205    -34.208567      0.029597591    367.84297      2073.8642      1728         
    220070  -34.411577      0.20935513    -34.202222      0.029597591    231.3774       580.34246      1728         
    220080  -34.576851      0.3745061     -34.202345      0.029597591    413.90076      899.44167      1728         
    220090  -34.450299      0.2475245     -34.202774      0.029597591    273.56184     -1501.5157      1728         
    220100  -34.56814       0.3657017     -34.202438      0.029597591    404.17021      589.60009      1728         
    220110  -34.494857      0.29741771    -34.197439      0.029597591    328.70337     -1321.4731      1728         
    220120  -34.553386      0.35376615    -34.199619      0.029597591    390.97915      586.34492      1728         
    220130  -34.486937      0.28584584    -34.201091      0.029597591    315.91424     -805.01573      1728         
    220140  -34.591174      0.3874768     -34.203697      0.029597591    428.23585     -444.76748      1728         
    220150  -34.508741      0.30100972    -34.207732      0.029597591    332.67322      110.76223      1728         
    220160  -34.560151      0.3513232     -34.208828      0.029597591    388.27923      1427.6328      1728         
    220170  -34.526116      0.31686763    -34.209249      0.029597591    350.19924      693.40379      1728         
    220180  -34.569026      0.35486605    -34.21416       0.029597591    392.19475      646.55262      1728         
    220190  -34.527505      0.3027398     -34.224765      0.029597591    334.58529     -860.0859       1728         
    220200  -34.576954      0.34740052    -34.229554      0.029597591    383.94391     -294.61571      1728         
    220210  -34.536427      0.30390988    -34.232517      0.029597591    335.87845     -35.998408      1728         
    220220  -34.494907      0.25626417    -34.238643      0.029597591    283.22084     -864.97955      1728         
    220230  -34.550883      0.30230122    -34.248582      0.029597591    334.10057      325.34087      1728         
    220240  -34.524335      0.2687624     -34.255572      0.029597591    297.03377     -665.37238      1728         
    220250  -34.555424      0.28998331    -34.26544       0.029597591    320.48694      378.71157      1728         
    220260  -34.505026      0.23758801    -34.267438      0.029597591    262.58012      112.74555      1728         
    220270  -34.539113      0.26001369    -34.2791        0.029597591    287.36478      577.5777       1728         
    220280  -34.509889      0.22284953    -34.287039      0.029597591    246.29128     -191.47995      1728         
    220290  -34.586646      0.28751024    -34.299135      0.029597591    317.75372      1278.0151      1728         
    220300  -34.531582      0.22126984    -34.310313      0.029597591    244.54543     -1091.5153      1728         
    220310  -34.570876      0.24967493    -34.321201      0.029597591    275.93848      550.64307      1728         
    220320  -34.506156      0.17474453    -34.331411      0.029597591    193.12608     -1098.6823      1728         
    220330  -34.59594       0.25113684    -34.344803      0.029597591    277.55416      209.01796      1728         
    220340  -34.518448      0.16186568    -34.356582      0.029597591    178.89249     -865.67155      1728         
    220350  -34.576436      0.2076492     -34.368787      0.029597591    229.49202      173.89021      1728         
    220360  -34.545948      0.17091254    -34.375036      0.029597591    188.89099     -960.85293      1728         
    220370  -34.59108       0.2042089     -34.386871      0.029597591    225.68983      545.53191      1728         
    220380  -34.538027      0.14275129    -34.395276      0.029597591    157.76744     -1338.7815      1728         
    220390  -34.65522       0.25122054    -34.403999      0.029597591    277.64667      252.79608      1728         
    220400  -34.569455      0.15347497    -34.41598       0.029597591    169.61914     -620.72021      1728         
    220410  -34.612571      0.19370303    -34.418868      0.029597591    214.07884      918.55303      1728         
    220420  -34.635024      0.20837017    -34.426654      0.029597591    230.28883     -359.39164      1728         
    220430  -34.604107      0.17093162    -34.433176      0.029597591    188.91208      433.86218      1728         
    220440  -34.610032      0.17329019    -34.436742      0.029597591    191.51875     -639.15082      1728         
    220450  -34.671985      0.23150992    -34.440475      0.029597591    255.86267     -93.295644      1728         
    220460  -34.609886      0.17128426    -34.438601      0.029597591    189.30182     -1244.4382      1728         
    220470  -34.680859      0.23604297    -34.444816      0.029597591    260.87256      993.93277      1728         
    220480  -34.681731      0.23496982    -34.446761      0.029597591    259.68652      493.00279      1728         
    220490  -34.595717      0.14607372    -34.449643      0.029597591    161.43935      1553.1409      1728         
    220500  -34.651176      0.20582148    -34.445354      0.029597591    227.47203      1085.1882      1728         
    220510  -34.662771      0.22558202    -34.437189      0.029597591    249.31121      786.75782      1728         
    220520  -34.648209      0.21033383    -34.437875      0.029597591    232.45905     -358.86995      1728         
    220530  -34.658821      0.22520891    -34.433612      0.029597591    248.89885     -487.21829      1728         
    220540  -34.655467      0.23163443    -34.423833      0.029597591    256.00028     -552.26193      1728         
    220550  -34.562446      0.14764885    -34.414797      0.029597591    163.18018      249.02341      1728         
    220560  -34.626027      0.23030743    -34.39572       0.029597591    254.53369      281.90587      1728         
    220570  -34.632514      0.25497669    -34.377538      0.029597591    281.79793     -115.07149      1728         
    220580  -34.577508      0.21893271    -34.358575      0.029597591    241.96245      216.60192      1728         
    220590  -34.55588       0.21967534    -34.336205      0.029597591    242.7832      -1094.7996      1728         
    220600  -34.59148       0.28547517    -34.306005      0.029597591    315.50457      554.48492      1728         
    220610  -34.48957       0.21577978    -34.273791      0.029597591    238.47786      600.51816      1728         
    220620  -34.617014      0.37747248    -34.239541      0.029597591    417.17917      2291.9042      1728         
    220630  -34.634705      0.41836589    -34.216339      0.029597591    462.37419     -478.12931      1728         
    220640  -34.597376      0.40981115    -34.187565      0.029597591    452.91958      940.62527      1728         
    220650  -34.589574      0.40937032    -34.180203      0.029597591    452.43237     -2243.2005      1728         
    220660  -34.605189      0.45039474    -34.154794      0.029597591    497.77219      1600.55        1728         
    220670  -34.463719      0.30958697    -34.154132      0.029597591    342.15272     -1717.8988      1728         
    220680  -34.517249      0.36756565    -34.149683      0.029597591    406.23024      1351.0344      1728         
    220690  -34.552519      0.40212789    -34.150391      0.029597591    444.4281      -671.5693       1728         
    220700  -34.451943      0.29496226    -34.156981      0.029597591    325.98962      1226.0033      1728         
    220710  -34.587928      0.42550642    -34.162422      0.029597591    470.26585     -668.59866      1728         
    220720  -34.546711      0.36781125    -34.1789        0.029597591    406.50166     -549.66172      1728         
    220730  -34.432505      0.24021862    -34.192286      0.029597591    265.48745     -2493.971       1728         
    220740  -34.459977      0.25769628    -34.202281      0.029597591    284.8036      -188.15223      1728         
    220750  -34.445703      0.23202281    -34.21368       0.029597591    256.42951     -2337.6128      1728         
    220760  -34.468152      0.25143       -34.216722      0.029597591    277.87816     -198.43027      1728         
    220770  -34.515239      0.29108444    -34.224155      0.029597591    321.70389     -2406.8226      1728         
    220780  -34.536297      0.2958616     -34.240435      0.029597591    326.98356     -427.29867      1728         
    220790  -34.592236      0.32819409    -34.264041      0.029597591    362.71714      1155.6295      1728         
    220800  -34.589676      0.31260654    -34.277069      0.029597591    345.48992      252.97094      1728         
    220810  -34.552126      0.27018753    -34.281939      0.029597591    298.60882     -1535.8415      1728         
    220820  -34.57553       0.27339955    -34.30213       0.029597591    302.15871      1461.6938      1728         
    220830  -34.583223      0.26630414    -34.316919      0.029597591    294.31693      130.6369       1728         
    220840  -34.573069      0.24686714    -34.326202      0.029597591    272.83533     -379.05449      1728         
    220850  -34.578467      0.2415884     -34.336878      0.029597591    267.00131     -6.3518455      1728         
    220860  -34.602935      0.25839851    -34.344536      0.029597591    285.5797      -379.02191      1728         
    220870  -34.584712      0.23023011    -34.354482      0.029597591    254.44823      522.57188      1728         
    220880  -34.582447      0.22274564    -34.359702      0.029597591    246.17646     -1735.1897      1728         
    220890  -34.705354      0.3367136     -34.36864       0.029597591    372.13282     -416.11743      1728         
    220900  -34.673277      0.28379413    -34.389483      0.029597591    313.64671      379.26257      1728         
    220910  -34.620015      0.22759629    -34.392419      0.029597591    251.53736      830.9711       1728         
    220920  -34.624936      0.22367365    -34.401262      0.029597591    247.20209      1624.3088      1728         
    220930  -34.590606      0.18723498    -34.403371      0.029597591    206.9304       2611.9468      1728         
    220940  -34.581729      0.17146121    -34.410268      0.029597591    189.49738     -188.29945      1728         
    220950  -34.634709      0.21844359    -34.416265      0.029597591    241.42188      1027.779       1728         
    220960  -34.654947      0.23967134    -34.415276      0.029597591    264.8826      -916.92793      1728         
    220970  -34.620293      0.20081231    -34.419481      0.029597591    221.93595      272.13408      1728         
    220980  -34.591626      0.17115868    -34.420468      0.029597591    189.16302     -92.892079      1728         
    220990  -34.713077      0.29501211    -34.418065      0.029597591    326.04471      1226.4704      1728         
    221000  -34.647969      0.22227957    -34.425689      0.029597591    245.66137     -1048.5358      1728         
    221010  -34.601809      0.18066944    -34.42114       0.029597591    199.67423     -459.46222      1728         
    221020  -34.651002      0.23425111    -34.416751      0.029597591    258.8922      -2243.7614      1728         
    221030  -34.680138      0.26216601    -34.417972      0.029597591    289.7435       436.419        1728         
    221040  -34.617679      0.20007248    -34.417607      0.029597591    221.11829     -672.01384      1728         
    221050  -34.703447      0.28788952    -34.415558      0.029597591    318.1729      -0.38950387     1728         
    221060  -34.620519      0.21341263    -34.407106      0.029597591    235.86171     -197.87741      1728         
    221070  -34.647751      0.24022344    -34.407528      0.029597591    265.49278      1045.8036      1728         
    221080  -34.647994      0.24627211    -34.401722      0.029597591    272.17771     -288.44591      1728         
    221090  -34.651954      0.25689491    -34.395059      0.029597591    283.91793      440.44771      1728         
    221100  -34.610725      0.22268712    -34.388038      0.029597591    246.11179     -871.73355      1728         
    221110  -34.677252      0.30558757    -34.371664      0.029597591    337.73262      260.32027      1728         
    221120  -34.591233      0.23472716    -34.356506      0.029597591    259.41834     -501.30009      1728         
    221130  -34.668134      0.32898506    -34.339149      0.029597591    363.59131      474.64518      1728         
    221140  -34.599301      0.28537623    -34.313924      0.029597591    315.39522      1956.5971      1728         
    221150  -34.567903      0.29612882    -34.271774      0.029597591    327.27889      1749.3497      1728         
    221160  -34.588099      0.36496504    -34.223134      0.029597591    403.35606      349.89801      1728         
    221170  -34.711002      0.54719048    -34.163812      0.029597591    604.74997      750.56436      1728         
    221180  -34.518008      0.3977515     -34.120256      0.029597591    439.59136     -988.46088      1728         
    221190  -34.591031      0.51051026    -34.080521      0.029597591    564.21132     -1082.0763      1728         
    221200  -34.590851      0.55088872    -34.039963      0.029597591    608.83723     -1563.9065      1728         
    221210  -34.471769      0.45583747    -34.015931      0.029597591    503.78745     -1531.047       1728         
    221220  -34.420728      0.41445752    -34.00627       0.029597591    458.0547      -662.29755      1728         
    221230  -34.606859      0.60906286    -33.997796      0.029597591    673.13076     -1750.9177      1728         
    221240  -34.606712      0.60587107    -34.000841      0.029597591    669.60323     -174.16754      1728         
    221250  -34.468094      0.44991325    -34.018181      0.029597591    497.24005      1013.1078      1728         
    221260  -34.587555      0.56384846    -34.023707      0.029597591    623.16022     -712.0409       1728         
    221270  -34.506913      0.45259084    -34.054322      0.029597591    500.19931      1787.2052      1728         
    221280  -34.528247      0.45787706    -34.07037       0.029597591    506.04159      2055.2507      1728         
    221290  -34.498772      0.40141152    -34.097361      0.029597591    443.63638      252.37211      1728         
    221300  -34.520231      0.39323051    -34.127         0.029597591    434.59481      1062.1094      1728         
    221310  -34.495431      0.35059025    -34.14484       0.029597591    387.46917     -525.17072      1728         
    221320  -34.731632      0.5521659     -34.179466      0.029597591    610.24876     -113.09423      1728         
    221330  -34.427959      0.22120626    -34.206753      0.029597591    244.47516      136.32967      1728         
    221340  -34.614128      0.39112805    -34.223         0.029597591    432.27118      1082.7401      1728         
    221350  -34.65283       0.39632504    -34.256505      0.029597591    438.01484     -814.5548       1728         
    221360  -34.590834      0.31539297    -34.275441      0.029597591    348.56946     -660.65107      1728         
    221370  -34.473917      0.18879535    -34.285122      0.029597591    208.65491     -1683.8487      1728         
    221380  -34.685525      0.38642987    -34.299095      0.029597591    427.07879     -328.69948      1728         
    221390  -34.574634      0.25606288    -34.318572      0.029597591    282.99838     -1329.5547      1728         
    221400  -34.551737      0.22312199    -34.328615      0.029597591    246.5924       762.05544      1728         
    221410  -34.693271      0.35596595    -34.337305      0.029597591    393.41035     -266.07661      1728         
    221420  -34.626374      0.27616399    -34.35021       0.029597591    305.21394      1118.4284      1728         
    221430  -34.514605      0.15631071    -34.358294      0.029597591    172.75318      408.42997      1728         
    221440  -34.587714      0.22382858    -34.363886      0.029597591    247.37332      1112.6118      1728         
    221450  -34.59701       0.22575039    -34.37126       0.029597591    249.49729     -414.4503       1728         
    221460  -34.65439       0.28161951    -34.37277       0.029597591    311.24334      917.81948      1728         
    221470  -34.581092      0.20122506    -34.379867      0.029597591    222.39212     -1125.2358      1728         
    221480  -34.567314      0.18322795    -34.384086      0.029597591    202.50187      651.97899      1728         
    221490  -34.661142      0.27143522    -34.389707      0.029597591    299.98775     -971.2088       1728         
    221500  -34.601378      0.20666507   