LAMMPS (2 Aug 2023 - Update 1)
OMP_NUM_THREADS environment is not set. Defaulting to 1 thread. (src/comm.cpp:98)
  using 1 OpenMP thread(s) per MPI task
Loaded 1 plugins from /home/rverma7/.conda/envs/deepmd/lib/deepmd_lmp
#13 Butadiene
units           metal
boundary        p p p
atom_style      atomic

neighbor        2.0 bin
neigh_modify    delay 0 every 1 check yes

read_data       conf.lmp
Reading data file ...
  triclinic box = (0 0 0) to (12 12 12) with tilt (0 0 0)
  1 by 1 by 1 MPI processor grid
  reading atoms ...
  8 atoms
  read_data CPU = 0.001 seconds
mass            1 10.8
mass            2 1.0
mass            3 14.0

variable        sysvol          equal vol
variable        sysmass         equal mass(all)/6.0221367e+23
variable        sysdensity      equal v_sysmass/v_sysvol/1.0e-24
variable	out_freq 	equal 100

pair_style      deepmd frozen_model_1.pb frozen_model_2.pb out_file md.out out_freq 10 atomic relative 1.0
Summary of lammps deepmd module ...
  >>> Info of deepmd-kit:
  installed to:       /home/rverma7/.conda/envs/deepmd
  source:             v2.2.10
  source branch:      HEAD
  source commit:      f8a0b3128
  source commit at:   2024-04-06 14:46:23 -0400
  support model ver.: 1.1 
  build variant:      cuda
  build with tf inc:  /home/rverma7/.conda/envs/deepmd/include;/home/rverma7/.conda/envs/deepmd/include
  build with tf lib:  /home/rverma7/.conda/envs/deepmd/lib/libtensorflow_cc.so
  set tf intra_op_parallelism_threads: 0
  set tf inter_op_parallelism_threads: 0
  >>> Info of lammps module:
  use deepmd-kit at:  /home/rverma7/.conda/envs/deepmdpair_coeff	* *

#
velocity        all create 300.0 2345678 rot no dist gaussian
fix             1 all nvt temp 300.0 300.0 0.05
fix             2 all plumed plumedfile plumed.dat outfile PLUMED.log

timestep        0.0005
thermo_style    custom step pe ke etotal v_sysdensity temp press vol
thermo          10

dump            10 all custom 100 traj.dump id type x y z
dump		101 all xyz 20 traj.xyz
dump_modify	101 element B H N

fix		extra all print 20 "$(step), $(ke), $(pe), $(etotal), $(temp), $(press), $(vol)" file logfile screen no

restart	        100000 dump.restart

run             150000

CITE-CITE-CITE-CITE-CITE-CITE-CITE-CITE-CITE-CITE-CITE-CITE-CITE

Your simulation uses code contributions which should be cited:

- USER-DEEPMD package:

@article{Wang_ComputPhysCommun_2018_v228_p178,
  author = {Wang, Han and Zhang, Linfeng and Han, Jiequn and E, Weinan},
  doi = {10.1016/j.cpc.2018.03.016},
  url = {https://doi.org/10.1016/j.cpc.2018.03.016},
  year = 2018,
  month = {jul},
  publisher = {Elsevier {BV}},
  volume = 228,
  journal = {Comput. Phys. Commun.},
  title = {{DeePMD-kit: A deep learning package for many-body potential energy representation and molecular dynamics}},
  pages = {178--184}
}
@misc{Zeng_JChemPhys_2023_v159_p054801,
  title  = {{DeePMD-kit v2: A software package for deep potential models}},
  author =   {Jinzhe Zeng and Duo Zhang and Denghui Lu and Pinghui Mo and Zeyu Li
         and Yixiao Chen and Mari{\'a}n Rynik and Li'ang Huang and Ziyao Li and 
         Shaochen Shi and Yingze Wang and Haotian Ye and Ping Tuo and Jiabin
         Yang and Ye Ding and Yifan Li and Davide Tisi and Qiyu Zeng and Han 
         Bao and Yu Xia and Jiameng Huang and Koki Muraoka and Yibo Wang and 
         Junhan Chang and Fengbo Yuan and Sigbj{\o}rn L{\o}land Bore and Chun
         Cai and Yinnian Lin and Bo Wang and Jiayan Xu and Jia-Xin Zhu and 
         Chenxing Luo and Yuzhi Zhang and Rhys E A Goodall and Wenshuo Liang
         and Anurag Kumar Singh and Sikai Yao and Jingchao Zhang and Renata
         Wentzcovitch and Jiequn Han and Jie Liu and Weile Jia and Darrin M
         York and Weinan E and Roberto Car and Linfeng Zhang and Han Wang},
  journal =  {J. Chem. Phys.},
  volume =   159,
  issue =    5,  
  year =    2023,
  pages  =   054801,
  doi =      {10.1063/5.0155600},
}

CITE-CITE-CITE-CITE-CITE-CITE-CITE-CITE-CITE-CITE-CITE-CITE-CITE

Generated 0 of 3 mixed pair_coeff terms from geometric mixing rule
Neighbor list info ...
  update: every = 1 steps, delay = 0 steps, check = yes
  max neighbors/atom: 2000, page size: 100000
  master list distance cutoff = 8
  ghost atom cutoff = 8
  binsize = 4, bins = 3 3 3
  1 neighbor lists, perpetual/occasional/extra = 1 0 0
  (1) pair deepmd, perpetual
      attributes: full, newton on
      pair build: full/bin/atomonly
      stencil: full/bin/3d
      bin: standard
Per MPI rank memory allocation (min/avg/max) = 3.063 | 3.063 | 3.063 Mbytes
   Step         PotEng         KinEng         TotEng      v_sysdensity       Temp          Press          Volume    
         0  -36.558445      0.2714463     -36.286998      0.029597591    300           -388.17441      1728         
        10  -36.511596      0.22549745    -36.286099      0.029597591    249.21774     -730.75814      1728         
        20  -36.456354      0.17167858    -36.284676      0.029597591    189.73761     -22.198322      1728         
        30  -36.52254       0.24025242    -36.282288      0.029597591    265.5248       279.21552      1728         
        40  -36.542417      0.26403466    -36.278383      0.029597591    291.80872     -1401.2823      1728         
        50  -36.490249      0.21723652    -36.273012      0.029597591    240.08783      1641.9426      1728         
        60  -36.490685      0.22853669    -36.262148      0.029597591    252.57668     -947.70909      1728         
        70  -36.505527      0.25002751    -36.255499      0.029597591    276.32814      705.18162      1728         
        80  -36.475191      0.22809105    -36.2471        0.029597591    252.08417      431.59107      1728         
        90  -36.489814      0.25393053    -36.235883      0.029597591    280.64173      92.624313      1728         
       100  -36.508741      0.2856271     -36.223114      0.029597591    315.67248     -855.53335      1728         
       110  -36.468068      0.26411111    -36.203957      0.029597591    291.89321      1134.2203      1728         
       120  -36.424638      0.23554152    -36.189097      0.029597591    260.31836     -2163.5465      1728         
       130  -36.463128      0.29104835    -36.17208       0.029597591    321.664        1000.0192      1728         
       140  -36.456538      0.3047786     -36.151759      0.029597591    336.83855     -531.2886       1728         
       150  -36.458898      0.32995704    -36.128941      0.029597591    364.66554     -178.08113      1728         
       160  -36.485006      0.38782252    -36.097184      0.029597591    428.61794      352.73142      1728         
       170  -36.433585      0.35985909    -36.073726      0.029597591    397.71302      755.83277      1728         
       180  -36.417092      0.36430305    -36.052789      0.029597591    402.62443     -829.7063       1728         
       190  -36.480398      0.4518178     -36.02858       0.029597591    499.34494      1545.5169      1728         
       200  -36.415243      0.40732018    -36.007923      0.029597591    450.16658     -894.65242      1728         
       210  -36.450939      0.46478511    -35.986154      0.029597591    513.6763      -197.88259      1728         
       220  -36.40489       0.43207409    -35.972816      0.029597591    477.52437      318.46395      1728         
       230  -36.301698      0.33641251    -35.965285      0.029597591    371.80007     -1378.3904      1728         
       240  -36.463507      0.50178946    -35.961718      0.029597591    554.57317     -232.7078       1728         
       250  -36.394469      0.4365853     -35.957884      0.029597591    482.51012      218.86329      1728         
       260  -36.341987      0.38618438    -35.955803      0.029597591    426.80748     -517.93589      1728         
       270  -36.491437      0.53192908    -35.959508      0.029597591    587.8832       248.89568      1728         
       280  -36.406091      0.43374215    -35.972349      0.029597591    479.3679       789.18123      1728         
       290  -36.266033      0.28349696    -35.982536      0.029597591    313.31828     -667.9287       1728         
       300  -36.47424       0.47413368    -36.000107      0.029597591    524.00826      1743.3676      1728         
       310  -36.379525      0.36590737    -36.013617      0.029597591    404.39751     -1007.5485      1728         
       320  -36.368174      0.33894597    -36.029228      0.029597591    374.60002      568.01251      1728         
       330  -36.385794      0.33618722    -36.049607      0.029597591    371.55107     -138.0336       1728         
       340  -36.333733      0.26527631    -36.068456      0.029597591    293.18098     -502.69886      1728         
       350  -36.351263      0.27102232    -36.080241      0.029597591    299.53141     -1046.3295      1728         
       360  -36.406729      0.3187205     -36.088008      0.029597591    352.24702      1025.6895      1728         
       370  -36.354134      0.25507771    -36.099057      0.029597591    281.90958     -1584.4744      1728         
       380  -36.430451      0.32272789    -36.107723      0.029597591    356.67594      1585.0659      1728         
       390  -36.427466      0.31273291    -36.114733      0.029597591    345.62958     -303.70096      1728         
       400  -36.340313      0.21967112    -36.120642      0.029597591    242.77854      321.9312       1728         
       410  -36.384728      0.26292033    -36.121807      0.029597591    290.57717      726.9059       1728         
       420  -36.464449      0.33756411    -36.126885      0.029597591    373.0728       330.46099      1728         
       430  -36.408407      0.27800632    -36.1304        0.029597591    307.25007     -982.63452      1728         
       440  -36.348523      0.21485502    -36.133668      0.029597591    237.45583      1558.1879      1728         
       450  -36.410974      0.27105456    -36.139919      0.029597591    299.56705     -1475.1972      1728         
       460  -36.411149      0.27325302    -36.137896      0.029597591    301.99677     -422.59188      1728         
       470  -36.358948      0.2182856     -36.140662      0.029597591    241.24727      303.96868      1728         
       480  -36.41408       0.27083388    -36.143246      0.029597591    299.32316     -1029.8948      1728         
       490  -36.475824      0.32763634    -36.148187      0.029597591    362.10072      279.69524      1728         
       500  -36.439475      0.28951151    -36.149964      0.029597591    319.96551      1081.3652      1728         
       510  -36.372425      0.22445022    -36.147975      0.029597591    248.06035     -479.17409      1728         
       520  -36.400561      0.2470827     -36.153478      0.029597591    273.07357      964.59998      1728         
       530  -36.499658      0.34170944    -36.157948      0.029597591    377.65418      624.16983      1728         
       540  -36.399456      0.24039788    -36.159058      0.029597591    265.68557     -1360.6953      1728         
       550  -36.369796      0.20665995    -36.163136      0.029597591    228.39871      1405.9178      1728         
       560  -36.429499      0.26734476    -36.162154      0.029597591    295.46701     -806.80369      1728         
       570  -36.408353      0.24239457    -36.165959      0.029597591    267.89228     -726.09381      1728         
       580  -36.332133      0.16440224    -36.167731      0.029597591    181.69587      169.83421      1728         
       590  -36.402464      0.23099516    -36.171468      0.029597591    255.29376     -318.27168      1728         
       600  -36.454871      0.28157452    -36.173297      0.029597591    311.19361     -1126.2825      1728         
       610  -36.404599      0.23468847    -36.16991       0.029597591    259.37558      2012.2362      1728         
       620  -36.356115      0.18497282    -36.171142      0.029597591    204.43029     -1013.5326      1728         
       630  -36.430803      0.25485711    -36.175946      0.029597591    281.66577      1477.7945      1728         
       640  -36.416146      0.23745135    -36.178695      0.029597591    262.42909      417.8806       1728         
       650  -36.376972      0.19653538    -36.180436      0.029597591    217.20912     -248.03961      1728         
       660  -36.409425      0.23397006    -36.175455      0.029597591    258.5816      -228.0774       1728         
       670  -36.414039      0.23623035    -36.177809      0.029597591    261.07965      977.73809      1728         
       680  -36.341021      0.162128      -36.178893      0.029597591    179.1824      -1902.1951      1728         
       690  -36.400741      0.22047286    -36.180268      0.029597591    243.66461      1095.7157      1728         
       700  -36.37911       0.19786033    -36.18125       0.029597591    218.67344     -1118.9235      1728         
       710  -36.388399      0.21234776    -36.176051      0.029597591    234.68482     -444.30718      1728         
       720  -36.415528      0.24208495    -36.173443      0.029597591    267.5501       507.86875      1728         
       730  -36.43004       0.2599528     -36.170088      0.029597591    287.29748      17.543498      1728         
       740  -36.41806       0.25102079    -36.16704       0.029597591    277.4259      -120.49271      1728         
       750  -36.409865      0.24364092    -36.166224      0.029597591    269.26974      1952.8408      1728         
       760  -36.376519      0.21805355    -36.158466      0.029597591    240.99081     -516.88973      1728         
       770  -36.453997      0.29917575    -36.154821      0.029597591    330.64634      311.60874      1728         
       780  -36.416515      0.27019696    -36.146318      0.029597591    298.61924      575.68766      1728         
       790  -36.378909      0.23857564    -36.140334      0.029597591    263.67163     -1240.0728      1728         
       800  -36.420195      0.28526338    -36.134932      0.029597591    315.2705       316.67996      1728         
       810  -36.352466      0.22785605    -36.12461       0.029597591    251.82445     -558.88983      1728         
       820  -36.304596      0.18746625    -36.11713       0.029597591    207.18601     -1062.1474      1728         
       830  -36.409476      0.30170098    -36.107775      0.029597591    333.43719      256.98995      1728         
       840  -36.410131      0.316687      -36.093444      0.029597591    349.9996       64.987941      1728         
       850  -36.40398       0.32551334    -36.078467      0.029597591    359.7544      -794.48759      1728         
       860  -36.387055      0.33077106    -36.056284      0.029597591    365.56518      2144.2152      1728         
       870  -36.304801      0.25758325    -36.047217      0.029597591    284.67867     -253.31062      1728         
       880  -36.367778      0.32904421    -36.038734      0.029597591    363.65669      1100.3156      1728         
       890  -36.399101      0.37685369    -36.022247      0.029597591    416.49529      232.32452      1728         
       900  -36.349174      0.34171458    -36.007459      0.029597591    377.65986     -286.18899      1728         
       910  -36.372864      0.37899199    -35.993872      0.029597591    418.85852     -671.70539      1728         
       920  -36.296127      0.30709953    -35.989027      0.029597591    339.40363      579.84613      1728         
       930  -36.200286      0.21702843    -35.983257      0.029597591    239.85786     -2401.7578      1728         
       940  -36.304384      0.32518069    -35.979204      0.029597591    359.38676      936.92688      1728         
       950  -36.370044      0.39545602    -35.974588      0.029597591    437.05442     -974.75305      1728         
       960  -36.355189      0.39185003    -35.963339      0.029597591    433.06911     -120.58044      1728         
       970  -36.380017      0.42008151    -35.959935      0.029597591    464.27028      553.6049       1728         
       980  -36.382031      0.41717524    -35.964856      0.029597591    461.0583       930.37224      1728         
       990  -36.292286      0.31948921    -35.972797      0.029597591    353.09659      155.26864      1728         
      1000  -36.38874       0.40250603    -35.986234      0.029597591    444.84602      1977.2104      1728         
      1010  -36.397411      0.40204813    -35.995363      0.029597591    444.33996     -1208.7377      1728         
      1020  -36.476374      0.46136189    -36.015012      0.029597591    509.89298      75.313133      1728         
      1030  -36.350077      0.31344309    -36.036634      0.029597591    346.41447      182.90212      1728         
      1040  -36.283403      0.2249468     -36.058456      0.029597591    248.60916     -1422.4552      1728         
      1050  -36.357888      0.28117169    -36.076716      0.029597591    310.74841     -370.18037      1728         
      1060  -36.436912      0.34566974    -36.091242      0.029597591    382.03107     -170.05409      1728         
      1070  -36.369909      0.25828363    -36.111626      0.029597591    285.45273     -1148.0079      1728         
      1080  -36.451265      0.31772513    -36.13354       0.029597591    351.14694      511.95687      1728         
      1090  -36.514291      0.35875684    -36.155534      0.029597591    396.49481      260.15336      1728         
      1100  -36.414603      0.24106909    -36.173534      0.029597591    266.42737     -294.34793      1728         
      1110  -36.358785      0.17535196    -36.183433      0.029597591    193.7974       2182.6282      1728         
      1120  -36.488124      0.28868197    -36.199442      0.029597591    319.0487      -316.42375      1728         
      1130  -36.510609      0.30025332    -36.210355      0.029597591    331.83725      61.510472      1728         
      1140  -36.442842      0.22273499    -36.220107      0.029597591    246.16469      282.19989      1728         
      1150  -36.399617      0.1721872     -36.22743       0.029597591    190.29973     -629.43465      1728         
      1160  -36.428914      0.20160844    -36.227306      0.029597591    222.81583     -1059.2826      1728         
      1170  -36.421725      0.19102544    -36.2307        0.029597591    211.11959      797.96678      1728         
      1180  -36.399918      0.16718262    -36.232736      0.029597591    184.76872     -1831.9295      1728         
      1190  -36.457297      0.22391741    -36.233379      0.029597591    247.4715       673.63883      1728         
      1200  -36.484927      0.25349255    -36.231435      0.029597591    280.15767     -334.61936      1728         
      1210  -36.4462        0.22331751    -36.222882      0.029597591    246.80849     -173.41003      1728         
      1220  -36.423596      0.20242955    -36.221167      0.029597591    223.72331      877.52545      1728         
      1230  -36.437321      0.21685507    -36.220466      0.029597591    239.66626      1418.9474      1728         
      1240  -36.462863      0.24431462    -36.218549      0.029597591    270.01431     -796.21163      1728         
      1250  -36.474222      0.26234497    -36.211877      0.029597591    289.94128      1501.1249      1728         
      1260  -36.437322      0.23665922    -36.200663      0.029597591    261.55363     -1120.9381      1728         
      1270  -36.427236      0.23292298    -36.194313      0.029597591    257.42437     -401.54003      1728         
      1280  -36.391401      0.20204509    -36.189356      0.029597591    223.2984       55.763417      1728         
      1290  -36.399759      0.21605399    -36.183705      0.029597591    238.78091     -957.3696       1728         
      1300  -36.413474      0.23576738    -36.177706      0.029597591    260.56797     -725.26358      1728         
      1310  -36.386974      0.22243977    -36.164534      0.029597591    245.83842      794.99545      1728         
      1320  -36.421863      0.26908528    -36.152778      0.029597591    297.39062     -1464.1523      1728         
      1330  -36.494161      0.35539497    -36.138766      0.029597591    392.77931      655.98736      1728         
      1340  -36.428543      0.30316219    -36.125381      0.029597591    335.05211      852.98307      1728         
      1350  -36.375006      0.25731121    -36.117695      0.029597591    284.37802      127.05398      1728         
      1360  -36.443021      0.3374332     -36.105588      0.029597591    372.92812      1451.1129      1728         
      1370  -36.435405      0.34111021    -36.094295      0.029597591    376.99192     -22.27343       1728         
      1380  -36.4275        0.34470842    -36.082791      0.029597591    380.96863     -811.23526      1728         
      1390  -36.382577      0.31001224    -36.072565      0.029597591    342.62272      329.55283      1728         
      1400  -36.370982      0.30195627    -36.069025      0.029597591    333.71933     -839.50884      1728         
      1410  -36.32222       0.26405038    -36.05817       0.029597591    291.8261      -1230.5935      1728         
      1420  -36.300135      0.24572231    -36.054412      0.029597591    271.57008      940.05793      1728         
      1430  -36.297736      0.24793827    -36.049797      0.029597591    274.01914     -1505.543       1728         
      1440  -36.441553      0.39564896    -36.045904      0.029597591    437.26765      232.85995      1728         
      1450  -36.421304      0.38377851    -36.037526      0.029597591    424.14854     -73.01251       1728         
      1460  -36.373898      0.34551302    -36.028385      0.029597591    381.85786     -111.27397      1728         
      1470  -36.361223      0.33072005    -36.030503      0.029597591    365.50881      957.06201      1728         
      1480  -36.375378      0.3408232     -36.034555      0.029597591    376.67471      1666.2203      1728         
      1490  -36.322173      0.28717337    -36.035         0.029597591    317.38141     -959.87677      1728         
      1500  -36.451007      0.41415603    -36.036851      0.029597591    457.7215       1446.3311      1728         
      1510  -36.3695        0.33453852    -36.034961      0.029597591    369.72895     -1298.4157      1728         
      1520  -36.320266      0.28216134    -36.038105      0.029597591    311.84216     -418.99947      1728         
      1530  -36.302405      0.26179391    -36.040611      0.029597591    289.33226     -21.500959      1728         
      1540  -36.270394      0.2248708     -36.045523      0.029597591    248.52517     -387.20305      1728         
      1550  -36.333481      0.28508361    -36.048397      0.029597591    315.07183     -841.73069      1728         
      1560  -36.446285      0.40027841    -36.046007      0.029597591    442.38408      759.87674      1728         
      1570  -36.305113      0.25857851    -36.046534      0.029597591    285.77863     -1666.4643      1728         
      1580  -36.403056      0.35492207    -36.048134      0.029597591    392.25666      770.43064      1728         
      1590  -36.447421      0.39456864    -36.052853      0.029597591    436.07369      658.83554      1728         
      1600  -36.275684      0.21675911    -36.058925      0.029597591    239.56021      383.88385      1728         
      1610  -36.344301      0.28537695    -36.058924      0.029597591    315.39603      1373.9634      1728         
      1620  -36.514862      0.44890074    -36.065961      0.029597591    496.12104      96.803497      1728         
      1630  -36.356474      0.28570712    -36.070767      0.029597591    315.76093     -1192.602       1728         
      1640  -36.288913      0.21437728    -36.074536      0.029597591    236.92783      692.97667      1728         
      1650  -36.365884      0.2838338     -36.08205       0.029597591    313.69054     -863.38634      1728         
      1660  -36.351385      0.26865204    -36.082733      0.029597591    296.91181     -908.36475      1728         
      1670  -36.325496      0.23725559    -36.08824       0.029597591    262.21274      1005.6896      1728         
      1680  -36.352251      0.25996395    -36.092287      0.029597591    287.3098      -1544.6312      1728         
      1690  -36.423937      0.32664646    -36.097291      0.029597591    361.00671     -126.5297       1728         
      1700  -36.397488      0.2979021     -36.099586      0.029597591    329.23871      530.29029      1728         
      1710  -36.368702      0.26927184    -36.09943       0.029597591    297.5968      -194.38865      1728         
      1720  -36.366867      0.2592575     -36.107609      0.029597591    286.52904      1015.4995      1728         
      1730  -36.37746       0.26330899    -36.114151      0.029597591    291.00672      1700.2999      1728         
      1740  -36.399747      0.27933636    -36.120411      0.029597591    308.72001     -1362.3177      1728         
      1750  -36.390466      0.26505246    -36.125414      0.029597591    292.93358      1098.3668      1728         
      1760  -36.347625      0.22160909    -36.126016      0.029597591    244.92036     -799.70912      1728         
      1770  -36.366331      0.23404397    -36.132287      0.029597591    258.66327     -840.45086      1728         
      1780  -36.334004      0.19489585    -36.139108      0.029597591    215.39713      158.53083      1728         
      1790  -36.339983      0.19447924    -36.145504      0.029597591    214.93669     -77.380417      1728         
      1800  -36.381933      0.23148366    -36.15045       0.029597591    255.83364     -1281.4868      1728         
      1810  -36.378641      0.22747906    -36.151162      0.029597591    251.4078       1213.6002      1728         
      1820  -36.393476      0.23991015    -36.153566      0.029597591    265.14653     -1246.3396      1728         
      1830  -36.436972      0.27466727    -36.162305      0.029597591    303.55979      865.13216      1728         
      1840  -36.328355      0.15763329    -36.170722      0.029597591    174.21488      1237.5481      1728         
      1850  -36.374859      0.19604043    -36.178819      0.029597591    216.66211      239.55117      1728         
      1860  -36.453413      0.27141979    -36.181993      0.029597591    299.9707       101.13173      1728         
      1870  -36.393102      0.20435293    -36.188749      0.029597591    225.84901      504.55266      1728         
      1880  -36.368403      0.17244961    -36.195953      0.029597591    190.58975     -1500.0046      1728         
      1890  -36.42871       0.22386974    -36.20484       0.029597591    247.41881      388.99185      1728         
      1900  -36.367927      0.15539412    -36.212533      0.029597591    171.74018     -498.36652      1728         
      1910  -36.365615      0.15244069    -36.213174      0.029597591    168.47607     -497.36317      1728         
      1920  -36.437699      0.21693366    -36.220765      0.029597591    239.75312      330.81756      1728         
      1930  -36.423538      0.19783562    -36.225703      0.029597591    218.64614     -542.73777      1728         
      1940  -36.430014      0.19992274    -36.230091      0.029597591    220.9528      -102.74585      1728         
      1950  -36.412817      0.17555212    -36.237265      0.029597591    194.01862      1211.7454      1728         
      1960  -36.354216      0.11645602    -36.23776       0.029597591    128.70614      177.16239      1728         
      1970  -36.438758      0.19784741    -36.24091       0.029597591    218.65917      550.90076      1728         
      1980  -36.473367      0.23093051    -36.242436      0.029597591    255.22231      518.10071      1728         
      1990  -36.36816       0.12480892    -36.243351      0.029597591    137.93769     -1175.1513      1728         
      2000  -36.422072      0.17869158    -36.243381      0.029597591    197.48832      220.44407      1728         
      2010  -36.436137      0.1988416     -36.237295      0.029597591    219.75794     -567.56177      1728         
      2020  -36.327413      0.092482089   -36.234931      0.029597591    102.21037     -451.70151      1728         
      2030  -36.397489      0.16560881    -36.23188       0.029597591    183.02936      302.487        1728         
      2040  -36.476075      0.25348782    -36.222587      0.029597591    280.15245     -208.31838      1728         
      2050  -36.380107      0.16713649    -36.21297       0.029597591    184.71774     -750.18651      1728         
      2060  -36.354254      0.15629386    -36.19796       0.029597591    172.73456      1712.9224      1728         
      2070  -36.37146       0.18447103    -36.186989      0.029597591    203.87571     -363.59203      1728         
      2080  -36.366085      0.19009548    -36.17599       0.029597591    210.09181      883.20734      1728         
      2090  -36.383511      0.22504801    -36.158463      0.029597591    248.72102      620.04173      1728         
      2100  -36.35197       0.21806518    -36.133904      0.029597591    241.00367     -601.92033      1728         
      2110  -36.347953      0.23763958    -36.110313      0.029597591    262.63712     -587.27672      1728         
      2120  -36.342829      0.25102678    -36.091803      0.029597591    277.43253      638.93546      1728         
      2130  -36.255423      0.18394486    -36.071479      0.029597591    203.2942      -1700.6232      1728         
      2140  -36.286911      0.23282743    -36.054084      0.029597591    257.31877      1112.8828      1728         
      2150  -36.357585      0.31925562    -36.038329      0.029597591    352.83842     -428.8935       1728         
      2160  -36.288067      0.27525916    -36.012808      0.029597591    304.21393     -938.28349      1728         
      2170  -36.252779      0.25867465    -35.994104      0.029597591    285.88489      521.80566      1728         
      2180  -36.322524      0.34321526    -35.979308      0.029597591    379.3184       291.57974      1728         
      2190  -36.311651      0.34200026    -35.969651      0.029597591    377.97559     -402.83094      1728         
      2200  -36.192943      0.23112552    -35.961818      0.029597591    255.43783      2325.2872      1728         
      2210  -36.293916      0.3418025     -35.952113      0.029597591    377.75703     -252.49225      1728         
      2220  -36.36764       0.41935493    -35.948285      0.029597591    463.46728     -373.61975      1728         
      2230  -36.230947      0.28661509    -35.944332      0.029597591    316.7644       849.70708      1728         
      2240  -36.241829      0.29863589    -35.943193      0.029597591    330.04969     -1434.093       1728         
      2250  -36.334016      0.38826416    -35.945752      0.029597591    429.10604     -182.18323      1728         
      2260  -36.229572      0.28629797    -35.943274      0.029597591    316.41392      815.06643      1728         
      2270  -36.201993      0.25400089    -35.947992      0.029597591    280.71949     -911.82439      1728         
      2280  -36.294031      0.34061088    -35.95342       0.029597591    376.44006     -10.706977      1728         
      2290  -36.23131       0.27145801    -35.959852      0.029597591    300.01294      222.00431      1728         
      2300  -36.261121      0.29818267    -35.962938      0.029597591    329.54879     -1770.7453      1728         
      2310  -36.341242      0.37443681    -35.966805      0.029597591    413.82418      1150.7782      1728         
      2320  -36.261213      0.284737      -35.976476      0.029597591    314.68875     -21.54471       1728         
      2330  -36.288954      0.30176011    -35.987194      0.029597591    333.50255      501.73935      1728         
      2340  -36.290024      0.28835827    -36.001666      0.029597591    318.69096      1168.6278      1728         
      2350  -36.275657      0.25925715    -36.0164        0.029597591    286.52866      475.36022      1728         
      2360  -36.361085      0.33515737    -36.025927      0.029597591    370.4129      -865.96672      1728         
      2370  -36.369699      0.32726334    -36.042436      0.029597591    361.68848      1051.0615      1728         
      2380  -36.244016      0.18922432    -36.054791      0.029597591    209.129       -1087.7507      1728         
      2390  -36.308526      0.24004343    -36.068483      0.029597591    265.29383      770.16742      1728         
      2400  -36.3032        0.21805071    -36.08515       0.029597591    240.98768     -551.1788       1728         
      2410  -36.255288      0.16385945    -36.091428      0.029597591    181.09599     -587.94733      1728         
      2420  -36.293365      0.19331587    -36.100049      0.029597591    213.65095     -288.57371      1728         
      2430  -36.319029      0.2080662     -36.110963      0.029597591    229.95288      294.68773      1728         
      2440  -36.267742      0.1476409     -36.120101      0.029597591    163.17139     -765.89808      1728         
      2450  -36.358578      0.23045532    -36.128123      0.029597591    254.69713      1013.7596      1728         
      2460  -36.360169      0.23177837    -36.12839       0.029597591    256.15936     -1244.1445      1728         
      2470  -36.356043      0.22099542    -36.135047      0.029597591    244.24214      112.24351      1728         
      2480  -36.373173      0.23115072    -36.142023      0.029597591    255.46569      825.69989      1728         
      2490  -36.344789      0.19252283    -36.152266      0.029597591    212.77449      298.07567      1728         
      2500  -36.316764      0.15920601    -36.157558      0.029597591    175.95304      835.69312      1728         
      2510  -36.438895      0.28078468    -36.15811       0.029597591    310.32069      982.73649      1728         
      2520  -36.391315      0.2252311     -36.166084      0.029597591    248.92337     -1222.9433      1728         
      2530  -36.346009      0.17343193    -36.172577      0.029597591    191.6754       86.311408      1728         
      2540  -36.415883      0.23711471    -36.178769      0.029597591    262.05704     -365.60711      1728         
      2550  -36.338613      0.15195875    -36.186654      0.029597591    167.94343     -991.57308      1728         
      2560  -36.318609      0.12880322    -36.189805      0.029597591    142.35215      826.27045      1728         
      2570  -36.441129      0.24266576    -36.198463      0.029597591    268.192       -653.44423      1728         
      2580  -36.406677      0.19660433    -36.210073      0.029597591    217.28532     -659.34873      1728         
      2590  -36.349168      0.12627411    -36.222894      0.029597591    139.557        962.39195      1728         
      2600  -36.404063      0.16831585    -36.235747      0.029597591    186.02115      171.45376      1728         
      2610  -36.40326       0.16043669    -36.242824      0.029597591    177.31318      111.01791      1728         
      2620  -36.375769      0.12291089    -36.252858      0.029597591    135.84         1552.7135      1728         
      2630  -36.430936      0.16644638    -36.26449       0.029597591    183.95504     -926.62496      1728         
      2640  -36.466388      0.19093692    -36.275451      0.029597591    211.02176     -87.804268      1728         
      2650  -36.389494      0.10731481    -36.282179      0.029597591    118.60336     -265.19386      1728         
      2660  -36.384643      0.10259234    -36.28205       0.029597591    113.38413     -814.11131      1728         
      2670  -36.465258      0.17785835    -36.287399      0.029597591    196.56744     -267.32633      1728         
      2680  -36.4429        0.15265542    -36.290245      0.029597591    168.71339      582.74052      1728         
      2690  -36.424931      0.13240614    -36.292525      0.029597591    146.33407     -720.13682      1728         
      2700  -36.430948      0.13650416    -36.294444      0.029597591    150.86317      1303.4187      1728         
      2710  -36.386349      0.09566926    -36.29068       0.029597591    105.7328       131.21173      1728         
      2720  -36.441394      0.15178566    -36.289609      0.029597591    167.75214      199.58586      1728         
      2730  -36.438259      0.15341501    -36.284844      0.029597591    169.55288      387.50167      1728         
      2740  -36.40011       0.12013967    -36.27997       0.029597591    132.77728     -165.93686      1728         
      2750  -36.427767      0.15406521    -36.273702      0.029597591    170.27147     -976.05358      1728         
      2760  -36.377068      0.116421      -36.260647      0.029597591    128.66744      440.64301      1728         
      2770  -36.354809      0.1023004     -36.252509      0.029597591    113.06148     -1320.6853      1728         
      2780  -36.462796      0.22385292    -36.238943      0.029597591    247.40022     -39.731446      1728         
      2790  -36.427887      0.20824405    -36.219643      0.029597591    230.14944      314.63481      1728         
      2800  -36.386717      0.18349669    -36.20322       0.029597591    202.79888      173.80801      1728         
      2810  -36.373342      0.19298383    -36.180358      0.029597591    213.28399      790.125        1728         
      2820  -36.35473       0.18605479    -36.168675      0.029597591    205.62607      891.39461      1728         
      2830  -36.386492      0.23200683    -36.154485      0.029597591    256.41185     -401.73275      1728         
      2840  -36.419088      0.28489909    -36.134189      0.029597591    314.8679       583.10842      1728         
      2850  -36.33936       0.22388962    -36.11547       0.029597591    247.44078     -398.567        1728         
      2860  -36.336267      0.24126166    -36.095005      0.029597591    266.6402      -265.10017      1728         
      2870  -36.326537      0.24218773    -36.08435       0.029597591    267.66368      439.98198      1728         
      2880  -36.263337      0.18766308    -36.075674      0.029597591    207.40354     -1099.4146      1728         
      2890  -36.262424      0.19446741    -36.067957      0.029597591    214.92362     -565.52808      1728         
      2900  -36.319488      0.26046682    -36.059021      0.029597591    287.86558     -167.46619      1728         
      2910  -36.272175      0.22808161    -36.044094      0.029597591    252.07373     -666.69478      1728         
      2920  -36.267359      0.23018194    -36.037177      0.029597591    254.395        199.13621      1728         
      2930  -36.346495      0.32172571    -36.024769      0.029597591    355.56834      278.61593      1728         
      2940  -36.359187      0.35415512    -36.005032      0.029597591    391.40903     -1399.2175      1728         
      2950  -36.288169      0.29383544    -35.994333      0.029597591    324.74427      1420.6413      1728         
      2960  -36.323947      0.3428929     -35.981054      0.029597591    378.96213      270.10321      1728         
      2970  -36.268742      0.28854961    -35.980192      0.029597591    318.90242      825.07248      1728         
      2980  -36.247027      0.27217746    -35.97485       0.029597591    300.80806      1201.201       1728         
      2990  -36.440203      0.4746296     -35.965573      0.029597591    524.55634      182.57742      1728         
      3000  -36.304898      0.34137161    -35.963526      0.029597591    377.28082     -1404.4994      1728         
      3010  -36.231754      0.28187715    -35.949877      0.029597591    311.52808      1188.1115      1728         
      3020  -36.297406      0.34701065    -35.950396      0.029597591    383.51303     -1543.7606      1728         
      3030  -36.198796      0.24335835    -35.955438      0.029597591    268.95745      238.4497       1728         
      3040  -36.176805      0.22016259    -35.956643      0.029597591    243.3217      -393.26329      1728         
      3050  -36.255448      0.29699728    -35.958451      0.029597591    328.23871     -919.08671      1728         
      3060  -36.226482      0.27151824    -35.954964      0.029597591    300.0795      -314.29705      1728         
      3070  -36.291135      0.33821588    -35.952919      0.029597591    373.79313      576.86157      1728         
      3080  -36.275567      0.32491808    -35.950649      0.029597591    359.09653     -1502.402       1728         
      3090  -36.265375      0.31524484    -35.95013       0.029597591    348.40575      1479.8523      1728         
      3100  -36.329925      0.37764276    -35.952282      0.029597591    417.36736      76.58453       1728         
      3110  -36.218206      0.26668742    -35.951519      0.029597591    294.74052      414.53663      1728         
      3120  -36.257379      0.29261181    -35.964767      0.029597591    323.39192      1146.8943      1728         
      3130  -36.372455      0.40465256    -35.967803      0.029597591    447.21835      202.26967      1728         
      3140  -36.348368      0.36908182    -35.979286      0.029597591    407.90589     -757.65358      1728         
      3150  -36.277367      0.28908803    -35.988279      0.029597591    319.49748      935.69768      1728         
      3160  -36.297996      0.29900716    -35.998989      0.029597591    330.46001     -887.15447      1728         
      3170  -36.326167      0.31565389    -36.010513      0.029597591    348.85782     -284.23674      1728         
      3180  -36.285518      0.25636149    -36.029156      0.029597591    283.3284       317.42071      1728         
      3190  -36.214362      0.16953124    -36.044831      0.029597591    187.36439     -1154.8546      1728         
      3200  -36.336048      0.27393952    -36.062109      0.029597591    302.75548      24.352362      1728         
      3210  -36.319235      0.24372815    -36.075506      0.029597591    269.36615      90.688862      1728         
      3220  -36.239889      0.15215392    -36.087735      0.029597591    168.15914     -587.8695       1728         
      3230  -36.34098       0.24254672    -36.098434      0.029597591    268.06045      101.23609      1728         
      3240  -36.353427      0.24059952    -36.112827      0.029597591    265.90841     -249.34257      1728         
      3250  -36.309403      0.18682331    -36.122579      0.029597591    206.47543     -560.81596      1728         
      3260  -36.334519      0.20475256    -36.129767      0.029597591    226.29068      1511.732       1728         
      3270  -36.275239      0.13601209    -36.139227      0.029597591    150.31933     -7.8829863      1728         
      3280  -36.316077      0.16915348    -36.146924      0.029597591    186.9469       600.3131       1728         
      3290  -36.390127      0.23811109    -36.152016      0.029597591    263.15822      552.13367      1728         
      3300  -36.324028      0.16468131    -36.159347      0.029597591    182.0043      -410.59426      1728         
      3310  -36.350347      0.19474584    -36.155601      0.029597591    215.23134     -538.31742      1728         
      3320  -36.377563      0.21970125    -36.157862      0.029597591    242.81184      739.45704      1728         
      3330  -36.297105      0.13880095    -36.158304      0.029597591    153.40156     -1057.1134      1728         
      3340  -36.353581      0.19387145    -36.159709      0.029597591    214.26498      569.6875       1728         
      3350  -36.361827      0.20064979    -36.161177      0.029597591    221.75633     -581.59106      1728         
      3360  -36.300967      0.14507798    -36.15589       0.029597591    160.33887     -598.16813      1728         
      3370  -36.330089      0.17644533    -36.153644      0.029597591    195.00578      63.917951      1728         
      3380  -36.363236      0.21537269    -36.147863      0.029597591    238.02795      21.417453      1728         
      3390  -36.345318      0.20711103    -36.138207      0.029597591    228.89724     -977.08261      1728         
      3400  -36.384747      0.26087936    -36.123868      0.029597591    288.32151      895.62159      1728         
      3410  -36.34913       0.2480279     -36.101102      0.029597591    274.11819     -503.09291      1728         
      3420  -36.286027      0.2036498     -36.082378      0.029597591    225.07192      775.94208      1728         
      3430  -36.24956       0.17949624    -36.070063      0.029597591    198.37762      1260.9506      1728         
      3440  -36.302351      0.25025607    -36.052095      0.029597591    276.58074     -31.753595      1728         
      3450  -36.341314      0.3279478     -36.013367      0.029597591    362.44494      235.77144      1728         
      3460  -36.295586      0.32725654    -35.968329      0.029597591    361.68097      730.133        1728         
      3470  -36.26812       0.33995415    -35.928166      0.029597591    375.71425     -1210.3861      1728         
      3480  -36.230355      0.33154058    -35.898814      0.029597591    366.41565      406.86373      1728         
      3490  -36.173466      0.29277858    -35.880687      0.029597591    323.57624     -656.99389      1728         
      3500  -36.158605      0.29233554    -35.86627       0.029597591    323.08659     -1651.3183      1728         
      3510  -36.114777      0.26654732    -35.84823       0.029597591    294.58569      287.83874      1728         
      3520  -36.184672      0.34600941    -35.838662      0.029597591    382.40647     -1167.0076      1728         
      3530  -36.274291      0.44081992    -35.833471      0.029597591    487.19019     -868.56874      1728         
      3540  -36.241102      0.41540044    -35.825701      0.029597591    459.0968       858.73843      1728         
      3550  -36.348621      0.53349379    -35.815127      0.029597591    589.61251     -605.16285      1728         
      3560  -36.322169      0.5115848     -35.810584      0.029597591    565.39889      440.63088      1728         
      3570  -36.085537      0.25833681    -35.8272        0.029597591    285.51151      3099.8433      1728         
      3580  -36.266221      0.42124348    -35.844977      0.029597591    465.55448     -185.01889      1728         
      3590  -36.417033      0.56109883    -35.855934      0.029597591    620.12135      654.35856      1728         
      3600  -36.233568      0.36403619    -35.869532      0.029597591    402.3295      -14.086896      1728         
      3610  -36.249228      0.37284432    -35.876383      0.029597591    412.06417     -763.55369      1728         
      3620  -36.277904      0.37333223    -35.904572      0.029597591    412.60341     -480.03303      1728         
      3630  -36.129843      0.20946153    -35.920382      0.029597591    231.49499     -139.63373      1728         
      3640  -36.127737      0.19935357    -35.928383      0.029597591    220.32376     -1844.6019      1728         
      3650  -36.223981      0.28233669    -35.941644      0.029597591    312.03596      392.53924      1728         
      3660  -36.231863      0.28154321    -35.95032       0.029597591    311.15901     -1168.6075      1728         
      3670  -36.323185      0.3599745     -35.963211      0.029597591    397.84056     -17.904911      1728         
      3680  -36.316628      0.34435917    -35.972269      0.029597591    380.58264      286.21944      1728         
      3690  -36.293483      0.30926931    -35.984214      0.029597591    341.80164      325.38982      1728         
      3700  -36.294357      0.30248761    -35.99187       0.029597591    334.30657      457.67299      1728         
      3710  -36.248475      0.24086751    -36.007607      0.029597591    266.2046       2123.509       1728         
      3720  -36.315634      0.28844345    -36.02719       0.029597591    318.78509     -577.92552      1728         
      3730  -36.395836      0.35999172    -36.035845      0.029597591    397.85959      558.87547      1728         
      3740  -36.360083      0.31617227    -36.04391       0.029597591    349.43073     -156.88462      1728         
      3750  -36.304946      0.25239378    -36.052553      0.029597591    278.94333     -281.10576      1728         
      3760  -36.290679      0.23056484    -36.060115      0.029597591    254.81818      13.205804      1728         
      3770  -36.300687      0.22994675    -36.070741      0.029597591    254.13506     -604.94145      1728         
      3780  -36.244908      0.1676618     -36.077246      0.029597591    185.29831     -1286.5553      1728         
      3790  -36.259953      0.17827999    -36.081673      0.029597591    197.03344      143.64289      1728         
      3800  -36.311249      0.22327715    -36.087972      0.029597591    246.76389     -772.98333      1728         
      3810  -36.318571      0.23106814    -36.087503      0.029597591    255.37441      9.7730864      1728         
      3820  -36.345842      0.26187702    -36.083965      0.029597591    289.42412      385.25174      1728         
      3830  -36.347439      0.26634971    -36.08109       0.029597591    294.36729     -618.09176      1728         
      3840  -36.282785      0.20197261    -36.080813      0.029597591    223.21831      797.26248      1728         
      3850  -36.27625       0.19481939    -36.08143       0.029597591    215.31262      1010.4474      1728         
      3860  -36.248872      0.16913812    -36.079734      0.029597591    186.92992      207.79486      1728         
      3870  -36.315121      0.2399493     -36.075172      0.029597591    265.1898       814.64293      1728         
      3880  -36.403447      0.33487474    -36.068572      0.029597591    370.10053      214.55877      1728         
      3890  -36.289718      0.23377356    -36.055944      0.029597591    258.36442     -1063.6465      1728         
      3900  -36.277091      0.23044838    -36.046643      0.029597591    254.68947      819.05119      1728         
      3910  -36.309868      0.27576994    -36.034098      0.029597591    304.77844     -1001.8228      1728         
      3920  -36.249166      0.22396464    -36.025201      0.029597591    247.5237      -593.34858      1728         
      3930  -36.185541      0.17039239    -36.015149      0.029597591    188.31613     -56.731225      1728         
      3940  -36.277936      0.2783881     -35.999548      0.029597591    307.67201     -710.19345      1728         
      3950  -36.296701      0.32070671    -35.975994      0.029597591    354.44216     -999.56825      1728         
      3960  -36.265128      0.32498937    -35.940139      0.029597591    359.17531      1062.1464      1728         
      3970  -36.285946      0.39243205    -35.893514      0.029597591    433.71235     -1589.235       1728         
      3980  -36.325777      0.47715257    -35.848625      0.029597591    527.3447       1275.064       1728         
      3990  -36.156478      0.34960146    -35.806876      0.029597591    386.37638      1161.9302      1728         
      4000  -36.082598      0.2896278     -35.79297       0.029597591    320.09403      1100.7415      1728         
      4010  -36.250917      0.48562302    -35.765294      0.029597591    536.70617      805.23574      1728         
      4020  -36.2375        0.50160816    -35.735892      0.029597591    554.3728       642.70703      1728         
      4030  -36.14636       0.43833757    -35.708023      0.029597591    484.44672     -1492.0109      1728         
      4040  -36.236863      0.53646728    -35.700396      0.029597591    592.89878      1138.4601      1728         
      4050  -36.086891      0.38146559    -35.705425      0.029597591    421.59232     -1319.9372      1728         
      4060  -35.984479      0.28251734    -35.701961      0.029597591    312.23561     -605.03883      1728         
      4070  -36.010203      0.30708862    -35.703115      0.029597591    339.39157     -409.40389      1728         
      4080  -35.962542      0.25747716    -35.705065      0.029597591    284.56142     -1341.4457      1728         
      4090  -36.11389       0.40750027    -35.70639       0.029597591    450.36561     -1137.1856      1728         
      4100  -36.176949      0.46484726    -35.712102      0.029597591    513.74498      575.80754      1728         
      4110  -36.164397      0.44405885    -35.720338      0.029597591    490.76982     -886.44255      1728         
      4120  -36.276871      0.54901486    -35.727856      0.029597591    606.76625      841.32299      1728         
      4130  -36.280077      0.53549124    -35.744585      0.029597591    591.82007      452.84823      1728         
      4140  -36.022351      0.25904034    -35.763311      0.029597591    286.28904      708.2594       1728         
      4150  -36.200658      0.4115188     -35.789139      0.029597591    454.80686      1937.3608      1728         
      4160  -36.304068      0.50391144    -35.800157      0.029597591    556.91836     -14.905309      1728         
      4170  -36.242579      0.42384726    -35.818731      0.029597591    468.43216     -177.77291      1728         
      4180  -36.254578      0.41796575    -35.836612      0.029597591    461.93197      739.22197      1728         
      4190  -36.250476      0.38662141    -35.863854      0.029597591    427.29048     -977.56718      1728         
      4200  -36.171659      0.29102542    -35.880633      0.029597591    321.63866     -1180.7051      1728         
      4210  -36.143372      0.25584757    -35.887524      0.029597591    282.76042      317.97231      1728         
      4220  -36.147202      0.24946216    -35.89774       0.029597591    275.70332     -2033.2158      1728         
      4230  -36.232866      0.32419581    -35.90867       0.029597591    358.29827      476.56865      1728         
      4240  -36.290431      0.36990395    -35.920528      0.029597591    408.81449     -356.72486      1728         
      4250  -36.296512      0.36817399    -35.928338      0.029597591    406.90256     -611.1858       1728         
      4260  -36.315831      0.3865769     -35.929254      0.029597591    427.24129      239.94753      1728         
      4270  -36.265692      0.3272262     -35.938466      0.029597591    361.64743      1179.227       1728         
      4280  -36.155866      0.20321269    -35.952654      0.029597591    224.58883      188.36811      1728         
      4290  -36.201832      0.23606927    -35.965762      0.029597591    260.90162      2468.2074      1728         
      4300  -36.337231      0.36808035    -35.96915       0.029597591    406.79908     -524.8568       1728         
      4310  -36.336477      0.36367036    -35.972807      0.029597591    401.92519     -62.576278      1728         
      4320  -36.250962      0.27692204    -35.97404       0.029597591    306.05173     -0.4520933      1728         
      4330  -36.220016      0.23376499    -35.986251      0.029597591    258.35496     -672.67428      1728         
      4340  -36.236095      0.24111811    -35.994977      0.029597591    266.48156     -1142.0606      1728         
      4350  -36.189689      0.1891895     -36.000499      0.029597591    209.09052      528.14447      1728         
      4360  -36.175397      0.17741364    -35.997984      0.029597591    196.07595     -1799.7271      1728         
      4370  -36.26937       0.26670853    -36.002661      0.029597591    294.76385      304.31177      1728         
      4380  -36.320097      0.31180066    -36.008296      0.029597591    344.59927     -518.72375      1728         
      4390  -36.347476      0.34402991    -36.003446      0.029597591    380.21875     -667.07041      1728         
      4400  -36.396205      0.39138103    -36.004824      0.029597591    432.55078      665.13264      1728         
      4410  -36.269515      0.2701613     -35.999354      0.029597591    298.57982      1138.9935      1728         
      4420  -36.201778      0.18942063    -36.012357      0.029597591    209.34596      1107.8141      1728         
      4430  -36.370734      0.34466775    -36.026066      0.029597591    380.92368      1453.0487      1728         
      4440  -36.373703      0.35032596    -36.023378      0.029597591    387.17708     -448.09903      1728         
      4450  -36.351605      0.32827429    -36.023331      0.029597591    362.80577     -489.7055       1728         
      4460  -36.326569      0.30173167    -36.024838      0.029597591    333.47111      349.25459      1728         
      4470  -36.22491       0.18964242    -36.035267      0.029597591    209.59109     -1296.9638      1728         
      4480  -36.185672      0.14559908    -36.040073      0.029597591    160.91479     -197.80544      1728         
      4490  -36.220694      0.17694716    -36.043747      0.029597591    195.5604      -628.37337      1728         
      4500  -36.221995      0.17592432    -36.046071      0.029597591    194.42996     -1274.361       1728         
      4510  -36.307023      0.26233808    -36.044685      0.029597591    289.93367     -285.41838      1728         
      4520  -36.345866      0.29744415    -36.048422      0.029597591    328.73258      218.32577      1728         
      4530  -36.388943      0.35027207    -36.038671      0.029597591    387.11752     -961.05053      1728         
      4540  -36.363062      0.32590797    -36.037154      0.029597591    360.19054      1720.952       1728         
      4550  -36.226351      0.18417585    -36.042175      0.029597591    203.54948      946.51487      1728         
      4560  -36.28862       0.23859787    -36.050022      0.029597591    263.69621      1510.2102      1728         
      4570  -36.433091      0.38449773    -36.048593      0.029597591    424.94342      557.93955      1728         
      4580  -36.35138       0.30200168    -36.049378      0.029597591    333.76952     -472.54723      1728         
      4590  -36.341225      0.29567804    -36.045547      0.029597591    326.78069     -482.5095       1728         
      4600  -36.271956      0.2150618     -36.056895      0.029597591    237.68436      370.8807       1728         
      4610  -36.175877      0.12026033    -36.055617      0.029597591    132.91063     -1869.1995      1728         
      4620  -36.191676      0.13365174    -36.058024      0.029597591    147.71069      198.22363      1728         
      4630  -36.222622      0.16355662    -36.059065      0.029597591    180.7613      -1089.0647      1728         
      4640  -36.241598      0.18464585    -36.056952      0.029597591    204.06893     -869.76914      1728         
      4650  -36.318778      0.26276335    -36.056015      0.029597591    290.40368      153.56229      1728         
      4660  -36.364158      0.32004158    -36.044116      0.029597591    353.70706      14.394663      1728         
      4670  -36.400532      0.37123234    -36.029299      0.029597591    410.28263     -487.00032      1728         
      4680  -36.288207      0.27457788    -36.01363       0.029597591    303.46099      2017.6932      1728         
      4690  -36.164538      0.14335414    -36.021183      0.029597591    158.4337       1154.7231      1728         
      4700  -36.413596      0.3881436     -36.025452      0.029597591    428.97279      814.07996      1728         
      4710  -36.388854      0.38900268    -35.999851      0.029597591    429.92224      289.43453      1728         
      4720  -36.322114      0.34223114    -35.979883      0.029597591    378.23076     -409.49789      1728         
      4730  -36.289712      0.3110817     -35.978631      0.029597591    343.80469     -396.89004      1728         
      4740  -36.210535      0.23562598    -35.974909      0.029597591    260.4117      -525.69646      1728         
      4750  -36.128027      0.15715483    -35.970872      0.029597591    173.6861      -1370.3247      1728         
      4760  -36.131373      0.17062543    -35.960748      0.029597591    188.57368     -116.94189      1728         
      4770  -36.152221      0.19715288    -35.955068      0.029597591    217.89158     -606.51794      1728         
      4780  -36.220523      0.27630597    -35.944217      0.029597591    305.37085     -935.69439      1728         
      4790  -36.261776      0.33225821    -35.929518      0.029597591    367.20877      344.41212      1728         
      4800  -36.290733      0.38316809    -35.907565      0.029597591    423.47391     -793.93379      1728         
      4810  -36.348781      0.47327564    -35.875506      0.029597591    523.05996      317.25135      1728         
      4820  -36.190824      0.33940026    -35.851424      0.029597591    375.1021       1516.9242      1728         
      4830  -36.020047      0.16686499    -35.853182      0.029597591    184.41768      1673.0843      1728         
      4840  -36.254508      0.40281326    -35.851695      0.029597591    445.18557      951.39797      1728         
      4850  -36.341291      0.51202603    -35.829265      0.029597591    565.88654      651.56453      1728         
      4860  -36.234887      0.43641958    -35.798467      0.029597591    482.32697     -958.28554      1728         
      4870  -36.207749      0.4064083     -35.801341      0.029597591    449.15878      68.31754       1728         
      4880  -36.11985       0.31948183    -35.800368      0.029597591    353.08843     -894.57827      1728         
      4890  -36.023757      0.22051735    -35.80324       0.029597591    243.71378     -839.56814      1728         
      4900  -35.955059      0.1536349     -35.801424      0.029597591    169.7959      -322.2386       1728         
      4910  -36.025598      0.23136526    -35.794233      0.029597591    255.70279     -902.61839      1728         
      4920  -36.05977       0.26987831    -35.789892      0.029597591    298.26707     -1376.6024      1728         
      4930  -36.139309      0.35513562    -35.784173      0.029597591    392.49267      288.93119      1728         
      4940  -36.221927      0.44414217    -35.777784      0.029597591    490.86191     -1195.7152      1728         
      4950  -36.332011      0.56044959    -35.771561      0.029597591    619.40382      614.43423      1728         
      4960  -36.252526      0.49345502    -35.759071      0.029597591    545.36203      883.30237      1728         
      4970  -36.088722      0.32005361    -35.768668      0.029597591    353.72036      1632.2461      1728         
      4980  -36.172932      0.38226574    -35.790666      0.029597591    422.47664      1943.5677      1728         
      4990  -36.375844      0.56553397    -35.81031       0.029597591    625.02303      787.82839      1728         
      5000  -36.284791      0.44780749    -35.836984      0.029597591    494.91279     -1060.2065      1728         
      5010  -36.312389      0.44266549    -35.869724      0.029597591    489.2299       692.88028      1728         
      5020  -36.192408      0.27982645    -35.912582      0.029597591    309.26166     -969.93257      1728         
      5030  -36.161785      0.22318661    -35.938599      0.029597591    246.66383     -908.07126      1728         
      5040  -36.11817       0.15833509    -35.959835      0.029597591    174.99051     -145.88215      1728         
      5050  -36.154738      0.17926383    -35.975475      0.029597591    198.12076     -1160.2685      1728         
      5060  -36.201417      0.21762165    -35.983795      0.029597591    240.51348     -779.83265      1728         
      5070  -36.283999      0.28414789    -35.999851      0.029597591    314.03767      254.89998      1728         
      5080  -36.286353      0.26511498    -36.021238      0.029597591    293.00268     -490.7776       1728         
      5090  -36.344332      0.3229017     -36.02143       0.029597591    356.86803      189.28481      1728         
      5100  -36.309078      0.2762761     -36.032802      0.029597591    305.33785      690.28001      1728         
      5110  -36.183404      0.15207372    -36.03133       0.029597591    168.0705       373.0129       1728         
      5120  -36.2033        0.15920369    -36.044096      0.029597591    175.95048      1657.3943      1728         
      5130  -36.292858      0.2451191     -36.047739      0.029597591    270.90342      532.75336      1728         
      5140  -36.352211      0.30423384    -36.047977      0.029597591    336.23649     -362.03002      1728         
      5150  -36.291133      0.2521564     -36.038977      0.029597591    278.68097      692.1529       1728         
      5160  -36.305216      0.26830858    -36.036907      0.029597591    296.53221     -600.03829      1728         
      5170  -36.240542      0.19902368    -36.041518      0.029597591    219.95917     -999.09948      1728         
      5180  -36.204684      0.16307355    -36.04161       0.029597591    180.22741      13.718735      1728         
      5190  -36.164261      0.12350463    -36.040756      0.029597591    136.4962      -1313.2634      1728         
      5200  -36.241675      0.2029726     -36.038702      0.029597591    224.32348     -273.02887      1728         
      5210  -36.279564      0.25018678    -36.029377      0.029597591    276.50417     -478.91878      1728         
      5220  -36.333277      0.30379522    -36.029482      0.029597591    335.75173     -506.59373      1728         
      5230  -36.364889      0.35957595    -36.005313      0.029597591    397.40008     -74.87159       1728         
      5240  -36.399095      0.40489212    -35.994203      0.029597591    447.48311      750.91167      1728         
      5250  -36.177748      0.18494556    -35.992802      0.029597591    204.40016      1043.5256      1728         
      5260  -36.207794      0.21204388    -35.99575       0.029597591    234.34897      2572.9262      1728         
      5270  -36.366533      0.37940486    -35.987128      0.029597591    419.31482     -6.1326467      1728         
      5280  -36.364189      0.38523455    -35.978954      0.029597591    425.75774     -394.70452      1728         
      5290  -36.263293      0.30347998    -35.959813      0.029597591    335.40333      257.5531       1728         
      5300  -36.221635      0.255475      -35.96616       0.029597591    282.34866     -956.85056      1728         
      5310  -36.158054      0.20072649    -35.957328      0.029597591    221.8411      -863.73803      1728         
      5320  -36.090225      0.1335295     -35.956695      0.029597591    147.57559      395.02097      1728         
      5330  -36.070683      0.1177868     -35.952896      0.029597591    130.1769      -1760.5413      1728         
      5340  -36.119626      0.17236713    -35.947259      0.029597591    190.49859      128.08382      1728         
      5350  -36.14284       0.20673302    -35.936107      0.029597591    228.47946     -885.5433       1728         
      5360  -36.239717      0.32778214    -35.911935      0.029597591    362.26186     -929.78455      1728         
      5370  -36.298659      0.41177112    -35.886888      0.029597591    455.08572      653.60483      1728         
      5380  -36.315474      0.47838134    -35.837093      0.029597591    528.70273      507.3021       1728         
      5390  -36.191147      0.39516465    -35.795982      0.029597591    436.73239      503.49323      1728         
      5400  -36.008383      0.21679818    -35.791585      0.029597591    239.60339      3470.663       1728         
      5410  -36.327439      0.55241359    -35.775026      0.029597591    610.5225       86.874513      1728         
      5420  -36.330683      0.5949863     -35.735697      0.029597591    657.57348     -526.67853      1728         
      5430  -36.26882       0.56789798    -35.700922      0.029597591    627.63571      522.29064      1728         
      5440  -36.118888      0.41983669    -35.699051      0.029597591    463.99971     -993.61022      1728         
      5450  -36.059137      0.36103082    -35.698106      0.029597591    399.008       -629.88772      1728         
      5460  -35.958348      0.2635775     -35.694771      0.029597591    291.30347     -157.73909      1728         
      5470  -35.935024      0.24048354    -35.69454       0.029597591    265.78024     -1783.7896      1728         
      5480  -35.982457      0.28817322    -35.694284      0.029597591    318.48644     -410.58293      1728         
      5490  -36.042042      0.34870362    -35.693338      0.029597591    385.38409     -369.94526      1728         
      5500  -36.048821      0.35276311    -35.696058      0.029597591    389.8706      -1216.8782      1728         
      5510  -36.19919       0.50788693    -35.691303      0.029597591    561.31204      659.31274      1728         
      5520  -36.268034      0.55456453    -35.713469      0.029597591    612.8997      -584.54289      1728         
      5530  -36.290919      0.55917132    -35.731748      0.029597591    617.99108      168.44439      1728         
      5540  -36.151155      0.38247135    -35.768684      0.029597591    422.70387      1774.8492      1728         
      5550  -36.111134      0.29215585    -35.818978      0.029597591    322.888        1651.142       1728         
      5560  -36.315437      0.44544001    -35.869997      0.029597591    492.29627      223.4962       1728         
      5570  -36.419917      0.48532573    -35.934591      0.029597591    536.37761      1029.6052      1728         
      5580  -36.312135      0.31998071    -35.992154      0.029597591    353.63978     -1357.1227      1728         
      5590  -36.308144      0.28341662    -36.024728      0.029597591    313.22948      451.37419      1728         
      5600  -36.293786      0.23953626    -36.054249      0.029597591    264.7333      -634.74516      1728         
      5610  -36.23588       0.16977542    -36.066104      0.029597591    187.63425     -847.17538      1728         
      5620  -36.229904      0.15390266    -36.076001      0.029597591    170.09182     -446.8375       1728         
      5630  -36.294809      0.21049758    -36.084311      0.029597591    232.64002      171.02064      1728         
      5640  -36.307134      0.2148237     -36.09231       0.029597591    237.42121     -1049.01        1728         
      5650  -36.279133      0.18370737    -36.095426      0.029597591    203.03172      1095.9871      1728         
      5660  -36.31059       0.22292308    -36.087667      0.029597591    246.37257     -947.36286      1728         
      5670  -36.364832      0.27425984    -36.090572      0.029597591    303.10949      156.89627      1728         
      5680  -36.313797      0.2225752     -36.091222      0.029597591    245.98809      940.2692       1728         
      5690  -36.358302      0.26340741    -36.094894      0.029597591    291.11549      457.46896      1728         
      5700  -36.388595      0.28946465    -36.09913       0.029597591    319.91372      93.099564      1728         
      5710  -36.394362      0.30024749    -36.094114      0.029597591    331.83081      1297.0986      1728         
      5720  -36.392068      0.29587082    -36.096197      0.029597591    326.99375     -973.02485      1728         
      5730  -36.358112      0.25944771    -36.098665      0.029597591    286.73926     -130.64921      1728         
      5740  -36.325435      0.22824957    -36.097186      0.029597591    252.25936      99.920009      1728         
      5750  -36.298815      0.20293684    -36.095878      0.029597591    224.28396     -585.0391       1728         
      5760  -36.28729       0.19854811    -36.088742      0.029597591    219.43358      537.24036      1728         
      5770  -36.306354      0.21865816    -36.087696      0.029597591    241.65903      132.05671      1728         
      5780  -36.292937      0.20775424    -36.085183      0.029597591    229.6081      -902.07052      1728         
      5790  -36.284663      0.20332872    -36.081334      0.029597591    224.71706      217.58214      1728         
      5800  -36.30675       0.22999433    -36.076755      0.029597591    254.18766     -596.79004      1728         
      5810  -36.332378      0.26747723    -36.064901      0.029597591    295.61341     -870.3775       1728         
      5820  -36.322296      0.26496761    -36.057329      0.029597591    292.83981      866.23977      1728         
      5830  -36.326423      0.28259626    -36.043827      0.029597591    312.32283     -973.45078      1728         
      5840  -36.378247      0.35309055    -36.025156      0.029597591    390.23248     -130.40772      1728         
      5850  -36.329585      0.31645653    -36.013129      0.029597591    349.74489      870.72841      1728         
      5860  -36.210991      0.21435069    -35.99664       0.029597591    236.89844      501.41093      1728         
      5870  -36.222847      0.22586457    -35.996982      0.029597591    249.62347      821.45004      1728         
      5880  -36.260867      0.27662628    -35.98424       0.029597591    305.72486      1510.7331      1728         
      5890  -36.288192      0.31826326    -35.969928      0.029597591    351.74168     -1223.8948      1728         
      5900  -36.268257      0.32289874    -35.945359      0.029597591    356.86477      961.11572      1728         
      5910  -36.28955       0.36327782    -35.926272      0.029597591    401.49136     -625.26271      1728         
      5920  -36.146572      0.22829927    -35.918273      0.029597591    252.31428     -871.58453      1728         
      5930  -36.115663      0.20721735    -35.908445      0.029597591    229.01474     -237.63491      1728         
      5940  -36.134106      0.23443041    -35.899676      0.029597591    259.09037     -420.93308      1728         
      5950  -36.101492      0.21207525    -35.889417      0.029597591    234.38364     -1471.2704      1728         
      5960  -36.145816      0.27630539    -35.86951       0.029597591    305.37021      572.32213      1728         
      5970  -36.249613      0.39712254    -35.852491      0.029597591    438.89624     -1546.9903      1728         
      5980  -36.296963      0.46022223    -35.836741      0.029597591    508.63345      536.92281      1728         
      5990  -36.319612      0.51182005    -35.807792      0.029597591    565.65889      419.73138      1728         
      6000  -36.161053      0.37144869    -35.789604      0.029597591    410.52173      671.33613      1728         
      6010  -35.989378      0.1941876     -35.79519       0.029597591    214.61438      2121.5467      1728         
      6020  -36.28618       0.48319109    -35.802989      0.029597591    534.01842      1544.7359      1728         
      6030  -36.252776      0.45815476    -35.794621      0.029597591    506.34849     -1352.2743      1728         
      6040  -36.202171      0.42264425    -35.779527      0.029597591    467.1026       1361.5926      1728         
      6050  -36.192749      0.3922444     -35.800505      0.029597591    433.50496     -1003.8358      1728         
      6060  -36.06158       0.26004247    -35.801537      0.029597591    287.39659     -981.75963      1728         
      6070  -35.962938      0.15380624    -35.809132      0.029597591    169.98527      267.05439      1728         
      6080  -36.018961      0.20201089    -35.81695       0.029597591    223.2606      -1112.0072      1728         
      6090  -36.022252      0.20104767    -35.821205      0.029597591    222.19606     -1243.3689      1728         
      6100  -36.024203      0.19832745    -35.825876      0.029597591    219.1897       486.47057      1728         
      6110  -36.060432      0.23377253    -35.826659      0.029597591    258.36329     -1610.4502      1728         
      6120  -36.213453      0.38296413    -35.830489      0.029597591    423.24849     -109.94422      1728         
      6130  -36.239387      0.38829587    -35.851091      0.029597591    429.14108      712.46456      1728         
      6140  -36.264556      0.41393431    -35.850622      0.029597591    457.47646     -752.26237      1728         
      6150  -36.180436      0.30915933    -35.871276      0.029597591    341.6801       1656.4395      1728         
      6160  -36.053659      0.16555122    -35.888107      0.029597591    182.96571      1764.4174      1728         
      6170  -36.161078      0.24496972    -35.916108      0.029597591    270.73832      391.53263      1728         
      6180  -36.300137      0.36244728    -35.93769       0.029597591    400.57345      1002.7917      1728         
      6190  -36.287521      0.31958713    -35.967934      0.029597591    353.20481     -36.743273      1728         
      6200  -36.259068      0.25884915    -36.000218      0.029597591    286.07774     -877.88927      1728         
      6210  -36.179279      0.15699565    -36.022283      0.029597591    173.51017      280.80856      1728         
      6220  -36.138604      0.10325392    -36.03535       0.029597591    114.11529     -1277.9404      1728         
      6230  -36.146754      0.103946      -36.042808      0.029597591    114.88018     -381.81301      1728         
      6240  -36.13665       0.088364129   -36.048286      0.029597591    97.659236     -143.11842      1728         
      6250  -36.167853      0.11518044    -36.052673      0.029597591    127.29638     -978.32761      1728         
      6260  -36.248511      0.19753636    -36.050975      0.029597591    218.3154      -455.52599      1728         
      6270  -36.313867      0.25071036    -36.063156      0.029597591    277.08282      567.8823       1728         
      6280  -36.286395      0.23714266    -36.049253      0.029597591    262.08792     -1148.0537      1728         
      6290  -36.285852      0.23047316    -36.055379      0.029597591    254.71685      1479.2269      1728         
      6300  -36.190355      0.13869873    -36.051656      0.029597591    153.28858      794.656        1728         
      6310  -36.150067      0.094710999   -36.055356      0.029597591    104.67374      1012.6068      1728         
      6320  -36.261779      0.21033332    -36.051445      0.029597591    232.45848      1235.6023      1728         
      6330  -36.339296      0.29192494    -36.047371      0.029597591    322.6328      -144.91411      1728         
      6340  -36.259031      0.22883171    -36.030199      0.029597591    252.90273     -560.15927      1728         
      6350  -36.249443      0.22044037    -36.029002      0.029597591    243.6287       554.13733      1728         
      6360  -36.162184      0.14160876    -36.020575      0.029597591    156.50472     -1492.4792      1728         
      6370  -36.137359      0.12102142    -36.016337      0.029597591    133.75178      8.9828083      1728         
      6380  -36.124585      0.11128632    -36.013299      0.029597591    122.99263     -243.7746       1728         
      6390  -36.080355      0.072399284   -36.007956      0.029597591    80.015034     -888.43086      1728         
      6400  -36.12028       0.11908146    -36.001199      0.029597591    131.60775     -381.43282      1728         
      6410  -36.193853      0.21043561    -35.983418      0.029597591    232.57153     -268.65299      1728         
      6420  -36.24653       0.27981702    -35.966713      0.029597591    309.25124     -1311.2968      1728         
[...]
    148410  -35.246035      0.37210411    -34.873931      0.029597591    411.2461       475.8412       1728         
    148420  -35.08434       0.18401055    -34.90033       0.029597591    203.36679     -465.32194      1728         
    148430  -35.228888      0.34852495    -34.880363      0.029597591    385.18663     -464.90863      1728         
    148440  -35.153709      0.28367333    -34.870036      0.029597591    313.5132       78.339916      1728         
    148450  -35.038574      0.18155284    -34.857021      0.029597591    200.65056      28.168774      1728         
    148460  -35.138574      0.2962179     -34.842356      0.029597591    327.37734     -156.45152      1728         
    148470  -35.121019      0.30050225    -34.820516      0.029597591    332.11236     -500.57436      1728         
    148480  -35.044598      0.21048943    -34.834109      0.029597591    232.63101      19.099373      1728         
    148490  -35.199386      0.34610562    -34.853281      0.029597591    382.51281      1133.4418      1728         
    148500  -35.098724      0.24557299    -34.853151      0.029597591    271.40504     -406.38563      1728         
    148510  -35.093626      0.25995367    -34.833672      0.029597591    287.29845     -48.09208       1728         
    148520  -35.23384       0.40828447    -34.825556      0.029597591    451.2323      -4.0713136      1728         
    148530  -35.067753      0.23611785    -34.831635      0.029597591    260.95531     -117.43699      1728         
    148540  -35.04074       0.20572722    -34.835013      0.029597591    227.36786     -373.30632      1728         
    148550  -35.214405      0.41146146    -34.802944      0.029597591    454.74348      665.0916       1728         
    148560  -35.002914      0.2004518     -34.802462      0.029597591    221.53752     -282.72964      1728         
    148570  -35.090662      0.25510262    -34.83556       0.029597591    281.93711      568.08959      1728         
    148580  -35.189385      0.38236246    -34.807023      0.029597591    422.58353     -424.86027      1728         
    148590  -34.969071      0.18081194    -34.788259      0.029597591    199.83172     -493.36779      1728         
    148600  -35.113493      0.34551557    -34.767977      0.029597591    381.86068     -99.546806      1728         
    148610  -35.153444      0.39137619    -34.762068      0.029597591    432.54543      1020.5262      1728         
    148620  -35.048127      0.26737045    -34.780757      0.029597591    295.49541     -664.32784      1728         
    148630  -35.022206      0.25449926    -34.767707      0.029597591    281.27028      664.28726      1728         
    148640  -35.174353      0.44860008    -34.725753      0.029597591    495.78875     -295.90305      1728         
    148650  -34.999498      0.25586248    -34.743636      0.029597591    282.7769      -752.72561      1728         
    148660  -35.020161      0.29087699    -34.729284      0.029597591    321.47462      557.46159      1728         
    148670  -35.100473      0.40230558    -34.698167      0.029597591    444.62449     -345.44947      1728         
    148680  -34.990836      0.30668583    -34.68415       0.029597591    338.9464       120.07088      1728         
    148690  -35.089258      0.37845872    -34.710799      0.029597591    418.26915      1117.468       1728         
    148700  -35.122365      0.41446633    -34.707899      0.029597591    458.06444     -288.56938      1728         
    148710  -35.009331      0.29891328    -34.710418      0.029597591    330.35625     -1468.0681      1728         
    148720  -35.044811      0.35169143    -34.693119      0.029597591    388.68618      2020.6819      1728         
    148730  -35.044733      0.35799474    -34.686738      0.029597591    395.65255     -544.10734      1728         
    148740  -35.074709      0.38646604    -34.688243      0.029597591    427.11878     -59.701909      1728         
    148750  -34.987401      0.2994201     -34.687981      0.029597591    330.91638      849.33818      1728         
    148760  -35.062896      0.37100945    -34.691887      0.029597591    410.03629     -572.81309      1728         
    148770  -35.041532      0.35874797    -34.682784      0.029597591    396.48501     -318.36756      1728         
    148780  -35.096712      0.38979576    -34.706916      0.029597591    430.79874      1656.4651      1728         
    148790  -35.059846      0.33399999    -34.725846      0.029597591    369.13376     -1833.5478      1728         
    148800  -35.036328      0.29103504    -34.745293      0.029597591    321.64929      584.25499      1728         
    148810  -34.938452      0.18823111    -34.750221      0.029597591    208.03132     -247.40407      1728         
    148820  -35.108167      0.34401823    -34.764148      0.029597591    380.20584     -651.74784      1728         
    148830  -35.085566      0.30385845    -34.781708      0.029597591    335.8216       322.34431      1728         
    148840  -34.964152      0.17356852    -34.790583      0.029597591    191.82636      1905.9791      1728         
    148850  -35.119506      0.30775548    -34.81175       0.029597591    340.12858     -1386.8462      1728         
    148860  -35.241393      0.40458881    -34.836804      0.029597591    447.14789      917.48413      1728         
    148870  -35.026509      0.17000415    -34.856505      0.029597591    187.88704     -1605.507       1728         
    148880  -35.05557       0.19286533    -34.862705      0.029597591    213.15302     -7.497385       1728         
    148890  -35.142076      0.27127032    -34.870805      0.029597591    299.80551      535.64197      1728         
    148900  -35.064259      0.17825872    -34.886001      0.029597591    197.00993     -136.60041      1728         
    148910  -35.14684       0.25283541    -34.894005      0.029597591    279.43141     -287.33639      1728         
    148920  -35.190834      0.28256709    -34.908267      0.029597591    312.2906       663.57963      1728         
    148930  -35.025002      0.1106179     -34.914384      0.029597591    122.2539      -1085.7536      1728         
    148940  -35.120676      0.20829862    -34.912378      0.029597591    230.20975      1396.741       1728         
    148950  -35.197422      0.27808914    -34.919333      0.029597591    307.3416      -1308.5222      1728         
    148960  -35.119099      0.19888746    -34.920212      0.029597591    219.80862      10.446833      1728         
    148970  -35.092138      0.16698098    -34.925157      0.029597591    184.54587      343.28718      1728         
    148980  -35.116487      0.18744312    -34.929044      0.029597591    207.16044     -707.4816       1728         
    148990  -35.145748      0.2119845     -34.933764      0.029597591    234.28336      83.112283      1728         
    149000  -35.200468      0.27209393    -34.928375      0.029597591    300.71575      845.44388      1728         
    149010  -35.117082      0.20131026    -34.915772      0.029597591    222.48628     -1047.1583      1728         
    149020  -35.099483      0.18585958    -34.913624      0.029597591    205.41033      1506.1251      1728         
    149030  -35.094944      0.17890416    -34.91604       0.029597591    197.72326     -512.54517      1728         
    149040  -35.199134      0.28404305    -34.915091      0.029597591    313.92181     -224.05198      1728         
    149050  -35.154695      0.24555544    -34.909139      0.029597591    271.38565      693.17006      1728         
    149060  -35.06647       0.17555939    -34.89091       0.029597591    194.02665     -299.02705      1728         
    149070  -35.159325      0.27819536    -34.88113       0.029597591    307.45899     -304.47         1728         
    149080  -35.105308      0.23173564    -34.873572      0.029597591    256.11214      646.99893      1728         
    149090  -35.059314      0.19308148    -34.866233      0.029597591    213.3919      -1103.1212      1728         
    149100  -35.171385      0.32052178    -34.850863      0.029597591    354.23778      628.28516      1728         
    149110  -35.092528      0.26648342    -34.826044      0.029597591    294.51507     -873.63942      1728         
    149120  -35.021001      0.21255336    -34.808447      0.029597591    234.91205     -230.73631      1728         
    149130  -35.1192        0.34409377    -34.775106      0.029597591    380.28932      771.46783      1728         
    149140  -35.031509      0.29345099    -34.738058      0.029597591    324.31938     -715.85019      1728         
    149150  -35.05827       0.34635075    -34.71192       0.029597591    382.78372      421.51247      1728         
    149160  -35.087156      0.41187462    -34.675281      0.029597591    455.2001       805.11146      1728         
    149170  -34.925051      0.28516499    -34.639886      0.029597591    315.16176     -1749.3623      1728         
    149180  -35.038253      0.42757858    -34.610674      0.029597591    472.55598      480.99163      1728         
    149190  -35.056555      0.4723971     -34.584158      0.029597591    522.089        40.97221       1728         
    149200  -35.044671      0.48847036    -34.5562        0.029597591    539.85303     -132.54913      1728         
    149210  -34.843781      0.3004304     -34.543351      0.029597591    332.03296      1922.2005      1728         
    149220  -34.948059      0.4046234     -34.543436      0.029597591    447.18612     -487.43221      1728         
    149230  -35.150983      0.60793493    -34.543048      0.029597591    671.88419      133.43818      1728         
    149240  -34.956714      0.41735564    -34.539359      0.029597591    461.25768      1027.3808      1728         
    149250  -34.85889       0.3097198     -34.54917       0.029597591    342.29952     -1468.7837      1728         
    149260  -35.053466      0.50441946    -34.549047      0.029597591    557.47983      422.43347      1728         
    149270  -35.012732      0.44279805    -34.569934      0.029597591    489.3764       849.31621      1728         
    149280  -34.94273       0.35309549    -34.589635      0.029597591    390.23794     -1072.7834      1728         
    149290  -35.08669       0.47515393    -34.611536      0.029597591    525.13583      593.92678      1728         
    149300  -34.895769      0.26599317    -34.629776      0.029597591    293.97325     -1063.3184      1728         
    149310  -34.930892      0.29830064    -34.632591      0.029597591    329.67917     -270.66967      1728         
    149320  -35.127386      0.47846488    -34.648921      0.029597591    528.79506      100.62822      1728         
    149330  -34.994034      0.32211272    -34.671922      0.029597591    355.99607     -202.48667      1728         
    149340  -34.977803      0.28776559    -34.690037      0.029597591    318.03593      295.47769      1728         
    149350  -35.089449      0.38093978    -34.708509      0.029597591    421.0112       143.08585      1728         
    149360  -34.978293      0.26099344    -34.717299      0.029597591    288.44758     -1131.3023      1728         
    149370  -34.985517      0.26226177    -34.723255      0.029597591    289.84934      1329.8456      1728         
    149380  -35.105219      0.37019814    -34.735021      0.029597591    409.13963     -801.7931       1728         
    149390  -35.033979      0.28322357    -34.750755      0.029597591    313.01613      587.80603      1728         
    149400  -34.966974      0.20517511    -34.761799      0.029597591    226.75767      741.05279      1728         
    149410  -35.100271      0.33140881    -34.768862      0.029597591    366.27002     -508.08262      1728         
    149420  -35.106843      0.3284305     -34.778413      0.029597591    362.97841     -235.42622      1728         
    149430  -34.979111      0.19642291    -34.782688      0.029597591    217.08482      848.95074      1728         
    149440  -35.013969      0.22516569    -34.788803      0.029597591    248.85108     -1461.6581      1728         
    149450  -35.036163      0.2379881     -34.798175      0.029597591    263.0223       1439.4874      1728         
    149460  -35.020403      0.21989947    -34.800504      0.029597591    243.0309      -505.37779      1728         
    149470  -35.13391       0.32767254    -34.806238      0.029597591    362.14073     -270.78916      1728         
    149480  -35.076805      0.26352839    -34.813277      0.029597591    291.2492       96.649681      1728         
    149490  -34.919274      0.10511763    -34.814156      0.029597591    116.17505     -225.6208       1728         
    149500  -35.090013      0.275341      -34.814672      0.029597591    304.30438     -522.40964      1728         
    149510  -35.127203      0.31292821    -34.814274      0.029597591    345.84542      887.18905      1728         
    149520  -34.996135      0.17652746    -34.819607      0.029597591    195.09656     -954.95153      1728         
    149530  -35.097133      0.2728206     -34.824312      0.029597591    301.51886      1136.2992      1728         
    149540  -35.07672       0.25256201    -34.824158      0.029597591    279.12925     -880.84198      1728         
    149550  -34.951448      0.12907405    -34.822374      0.029597591    142.65148     -533.17937      1728         
    149560  -35.145819      0.32913082    -34.816689      0.029597591    363.75241     -340.10104      1728         
    149570  -35.251956      0.42780066    -34.824155      0.029597591    472.80142     -25.586019      1728         
    149580  -35.027168      0.19699435    -34.830173      0.029597591    217.71637      670.56894      1728         
    149590  -35.070108      0.24302676    -34.827081      0.029597591    268.59098      1404.499       1728         
    149600  -35.128958      0.30460122    -34.824356      0.029597591    336.64251     -1203.8721      1728         
    149610  -35.027052      0.20963955    -34.817412      0.029597591    231.69173      552.30456      1728         
    149620  -35.03366       0.21514851    -34.818511      0.029597591    237.78018      59.050386      1728         
    149630  -35.056247      0.24057748    -34.81567       0.029597591    265.88406     -419.88306      1728         
    149640  -35.088444      0.2757523     -34.812692      0.029597591    304.75895      1143.2088      1728         
    149650  -35.105248      0.29660823    -34.80864       0.029597591    327.80874      654.34278      1728         
    149660  -35.104924      0.31188313    -34.793041      0.029597591    344.69042     -96.111961      1728         
    149670  -35.044469      0.24738808    -34.797081      0.029597591    273.41107      812.88943      1728         
    149680  -35.072681      0.27902475    -34.793657      0.029597591    308.37562     -949.35764      1728         
    149690  -35.232834      0.44444182    -34.788392      0.029597591    491.19308     -169.24523      1728         
    149700  -35.072197      0.2856429     -34.786554      0.029597591    315.68995      813.36264      1728         
    149710  -34.931126      0.1460787     -34.785048      0.029597591    161.44485     -938.99054      1728         
    149720  -35.097166      0.31751454    -34.779651      0.029597591    350.9142       1041.6382      1728         
    149730  -35.064073      0.29082148    -34.773252      0.029597591    321.41327     -87.89841       1728         
    149740  -35.029508      0.25761088    -34.771897      0.029597591    284.70921     -706.57532      1728         
    149750  -35.151588      0.38879517    -34.762792      0.029597591    429.69291      797.9377       1728         
    149760  -34.995176      0.24042276    -34.754753      0.029597591    265.71305     -453.26154      1728         
    149770  -35.016284      0.26886245    -34.747421      0.029597591    297.14434      820.01854      1728         
    149780  -35.140088      0.38977324    -34.750315      0.029597591    430.77386      382.11663      1728         
    149790  -34.956234      0.20905336    -34.747181      0.029597591    231.04388     -1632.5906      1728         
    149800  -34.954336      0.21568217    -34.738654      0.029597591    238.36999      1439.9002      1728         
    149810  -35.108689      0.37554807    -34.733141      0.029597591    415.05233     -963.46044      1728         
    149820  -34.956665      0.22923435    -34.727431      0.029597591    253.34773     -409.04717      1728         
    149830  -34.922769      0.20088223    -34.721887      0.029597591    222.01322      768.87819      1728         
    149840  -34.978516      0.26278159    -34.715734      0.029597591    290.42384     -388.49272      1728         
    149850  -35.008521      0.29880743    -34.709714      0.029597591    330.23927     -111.25296      1728         
    149860  -34.955171      0.25677956    -34.698392      0.029597591    283.79044      1212.5554      1728         
    149870  -34.918074      0.22534596    -34.692728      0.029597591    249.05032     -1759.0291      1728         
    149880  -34.935455      0.25595182    -34.679503      0.029597591    282.87563      1740.2991      1728         
    149890  -34.949805      0.27081408    -34.678991      0.029597591    299.30127     -982.04335      1728         
    149900  -34.911177      0.24246277    -34.668714      0.029597591    267.96766     -519.14057      1728         
    149910  -34.873242      0.22120379    -34.652039      0.029597591    244.47243      471.49413      1728         
    149920  -34.802364      0.15957419    -34.64279       0.029597591    176.35995     -59.651046      1728         
    149930  -34.934241      0.29788466    -34.636356      0.029597591    329.21943     -966.43003      1728         
    149940  -34.893824      0.27751481    -34.616309      0.029597591    306.70686      1748.8624      1728         
    149950  -34.75902       0.15092384    -34.608096      0.029597591    166.79966     -1686.0708      1728         
    149960  -34.886288      0.29804011    -34.588248      0.029597591    329.39123      1389.4754      1728         
    149970  -34.897748      0.32777503    -34.569973      0.029597591    362.25399     -392.79898      1728         
    149980  -34.790724      0.23611952    -34.554605      0.029597591    260.95715      97.986072      1728         
    149990  -34.869716      0.32750007    -34.542216      0.029597591    361.95012      501.62006      1728         
    150000  -34.824126      0.30824819    -34.515878      0.029597591    340.67311     -135.81942      1728         
Loop time of 685.688 on 1 procs for 150000 steps with 8 atoms

Performance: 9.450 ns/day, 2.540 hours/ns, 218.758 timesteps/s, 1.750 katom-step/s
110.7% CPU use with 1 MPI tasks x 1 OpenMP threads

MPI task timing breakdown:
Section |  min time  |  avg time  |  max time  |%varavg| %total
---------------------------------------------------------------
Pair    | 671.65     | 671.65     | 671.65     |   0.0 | 97.95
Neigh   | 0.015257   | 0.015257   | 0.015257   |   0.0 |  0.00
Comm    | 0.3377     | 0.3377     | 0.3377     |   0.0 |  0.05
Output  | 1.0369     | 1.0369     | 1.0369     |   0.0 |  0.15
Modify  | 12.411     | 12.411     | 12.411     |   0.0 |  1.81
Other   |            | 0.2408     |            |       |  0.04

Nlocal:              8 ave           8 max           8 min
Histogram: 1 0 0 0 0 0 0 0 0 0
Nghost:             68 ave          68 max          68 min
Histogram: 1 0 0 0 0 0 0 0 0 0
Neighs:              0 ave           0 max           0 min
Histogram: 1 0 0 0 0 0 0 0 0 0
FullNghs:           60 ave          60 max          60 min
Histogram: 1 0 0 0 0 0 0 0 0 0

Total # of neighbors = 60
Ave neighs/atom = 7.5
Neighbor list builds = 1017
Dangerous builds = 0
#
Total wall time: 0:11:27
