8
 Atoms. Timestep: 0
B 5.74046 6.33007 5.41224
H 7.13765 6.17173 7.19603
H 6.99131 4.6591 6.48592
H 5.76199 5.3298 7.42483
H 5.30281 7.3409 5.86648
H 4.86235 5.64183 4.93919
H 6.6291 6.51884 4.57517
N 6.45143 5.56858 6.69633
8
 Atoms. Timestep: 20
B 5.69945 6.32586 5.39434
H 7.19868 6.25298 7.02028
H 6.95756 4.62205 6.46945
H 5.77178 5.41376 7.41654
H 5.29418 7.37705 5.89366
H 4.80861 5.55325 5.18548
H 6.5091 6.55839 4.61181
N 6.49345 5.56359 6.7023
8
 Atoms. Timestep: 40
B 5.66281 6.30488 5.43539
H 7.33107 6.15597 7.0209
H 6.92639 4.63346 6.40807
H 5.9238 5.46592 7.5114
H 5.26056 7.36384 5.98391
H 4.76974 5.46679 5.16797
H 6.45989 6.40831 4.48336
N 6.51231 5.60001 6.67218
8
 Atoms. Timestep: 60
B 5.6333 6.2658 5.4994
H 7.42295 6.1493 6.86228
H 6.82369 4.63989 6.30849
H 6.01722 5.46793 7.5308
H 5.21068 7.34171 5.8455
H 4.70994 5.49356 5.21963
H 6.40668 6.36232 4.46484
N 6.54082 5.63298 6.64738
8
 Atoms. Timestep: 80
B 5.58639 6.25718 5.49905
H 7.42624 6.22321 6.68407
H 6.85411 4.64822 6.27688
H 6.14199 5.58424 7.57682
H 5.23315 7.33521 5.84052
H 4.72027 5.4377 5.48293
H 6.33737 6.35048 4.57798
N 6.5683 5.63075 6.63282
8
 Atoms. Timestep: 100
B 5.53338 6.24867 5.49795
H 7.49393 6.20862 6.63475
H 6.94188 4.61899 6.45206
H 6.29038 5.61118 7.61212
H 5.23062 7.35634 6.0012
H 4.60992 5.43527 5.47188
H 6.11243 6.22878 4.46668
N 6.61161 5.64588 6.61942
8
 Atoms. Timestep: 120
B 5.47923 6.21283 5.5308
H 7.52931 6.24395 6.55679
H 6.94285 4.61577 6.4241
H 6.24714 5.78461 7.54749
H 5.23787 7.37478 5.97178
H 4.45514 5.49143 5.55813
H 5.96325 6.2509 4.34915
N 6.67507 5.65194 6.61059
8
 Atoms. Timestep: 140
B 5.43379 6.19846 5.56293
H 7.55597 6.24793 6.43944
H 6.94833 4.62065 6.48987
H 6.35366 5.78533 7.54075
H 5.26896 7.30749 5.91914
H 4.56829 5.43185 5.89733
H 5.96691 6.19118 4.42331
N 6.68966 5.67567 6.56421
8
 Atoms. Timestep: 160
B 5.4422 6.17292 5.62453
H 7.57928 6.21109 6.31413
H 6.95183 4.66889 6.34358
H 6.5752 5.84091 7.55091
H 5.20264 7.30874 5.93165
H 4.57756 5.39458 5.94287
H 5.7098 5.92628 4.50738
N 6.68787 5.71208 6.52521
8
 Atoms. Timestep: 180
B 5.41424 6.11666 5.69652
H 7.52425 6.28409 6.10762
H 6.83208 4.68862 6.26952
H 6.64023 5.84304 7.51366
H 5.15947 7.37863 5.8301
H 4.43125 5.43915 6.09031
H 5.61867 5.84298 4.52431
N 6.73732 5.74648 6.48789
8
 Atoms. Timestep: 200
B 5.30697 6.09915 5.72748
H 7.56 6.28235 6.04843
H 7.09385 4.72436 6.33007
H 6.83374 5.95301 7.46287
H 5.25926 7.33206 5.80046
H 4.52398 5.46617 6.44041
H 5.63849 5.77005 4.53136
N 6.76983 5.75631 6.44415
8
 Atoms. Timestep: 220
B 5.26858 6.0922 5.75962
H 7.47331 6.3456 5.88542
H 7.17303 4.74293 6.3943
H 6.87069 6.07673 7.40203
H 5.17274 7.23452 5.85568
H 4.5185 5.50987 6.47346
H 5.14832 5.56384 4.65658
N 6.83893 5.76556 6.41551
8
 Atoms. Timestep: 240
B 5.23609 6.03266 5.82628
H 7.51457 6.30588 5.77346
H 7.15095 4.76417 6.36205
H 6.87197 6.19022 7.30477
H 5.14377 7.27871 5.80071
H 4.51147 5.55773 6.69863
H 5.03692 5.55389 4.77292
N 6.87306 5.79884 6.36086
8
 Atoms. Timestep: 260
B 5.21782 5.9948 5.91749
H 7.54539 6.24372 5.69302
H 7.1516 4.81637 6.41197
H 7.06824 6.22325 7.2081
H 5.15667 7.27764 5.72912
H 4.70165 5.55749 6.97732
H 5.21473 5.40851 4.83672
N 6.84368 5.83688 6.28023
8
 Atoms. Timestep: 280
B 5.28313 5.99155 5.98624
H 7.3117 6.1948 5.43994
H 7.03739 4.82553 6.29967
H 7.14884 6.35951 7.08552
H 4.92025 7.10836 5.78235
H 4.7172 5.52578 6.95655
H 4.98302 5.1429 5.07784
N 6.84472 5.86582 6.24251
8
 Atoms. Timestep: 300
B 5.25753 5.94253 6.0614
H 7.24516 6.18667 5.34044
H 7.1462 4.88918 6.36583
H 7.30429 6.44288 6.91124
H 4.9286 7.02543 5.76498
H 4.82046 5.607 7.1298
H 4.95902 5.165 5.1806
N 6.84408 5.89226 6.18088
8
 Atoms. Timestep: 320
B 5.18187 5.89709 6.1424
H 7.26771 6.10997 5.24788
H 7.32205 4.98551 6.37025
H 7.24455 6.59599 6.78447
H 5.01436 7.11107 5.76543
H 4.92078 5.67499 7.33618
H 4.99076 5.1139 5.27688
N 6.87699 5.90765 6.1121
8
 Atoms. Timestep: 340
B 5.18604 5.88984 6.19016
H 7.1441 6.10607 5.14325
H 7.38029 5.0541 6.44433
H 7.17632 6.73055 6.62326
H 4.78769 7.05712 5.86228
H 4.90008 5.63441 7.37773
H 4.69372 4.95994 5.51007
N 6.9222 5.91676 6.06242
8
 Atoms. Timestep: 360
B 5.18879 5.86779 6.25523
H 7.16177 5.96934 5.09016
H 7.44249 5.13533 6.40386
H 7.29395 6.76844 6.47398
H 4.79662 6.89645 5.88312
H 5.13028 5.70481 7.43893
H 4.73105 4.92619 5.56412
N 6.88622 5.94389 6.01984
8
 Atoms. Timestep: 380
B 5.23372 5.84196 6.32234
H 7.04234 5.91898 5.02222
H 7.29361 5.14821 6.45324
H 7.28184 6.82525 6.31545
H 4.81736 6.88489 5.89752
H 5.22715 5.7554 7.52736
H 4.9843 4.8731 5.66553
N 6.84511 5.96344 5.96613
8
 Atoms. Timestep: 400
B 5.31668 5.83875 6.35857
H 6.87514 5.85007 4.97197
H 7.35213 5.19419 6.38838
H 7.2566 6.86528 6.21534
H 4.58496 6.82669 5.91866
H 5.1828 5.71742 7.60695
H 4.92157 4.77449 5.91639
N 6.81492 5.9786 5.92844
8
 Atoms. Timestep: 420
B 5.29274 5.81152 6.42656
H 6.85029 5.89567 4.92663
H 7.51785 5.29478 6.2534
H 7.24285 6.92001 6.03836
H 4.64464 6.72841 5.88875
H 5.42179 5.89809 7.6543
H 4.90227 4.69658 6.00572
N 6.80435 5.98494 5.89389
8
 Atoms. Timestep: 440
B 5.26398 5.786 6.50867
H 6.79027 5.87682 4.85742
H 7.53212 5.34706 6.24556
H 7.07346 6.9733 6.07642
H 4.7352 6.64214 5.96745
H 5.45054 6.03727 7.64375
H 4.97157 4.64615 6.1858
N 6.82844 5.99826 5.81559
8
 Atoms. Timestep: 460
B 5.29312 5.77273 6.55678
H 6.82328 5.89999 4.79998
H 7.59326 5.39689 6.1567
H 7.08287 7.00518 5.94236
H 4.5079 6.57449 5.97669
H 5.43132 6.02843 7.75678
H 4.94017 4.62518 6.46429
N 6.81841 6.00796 5.76989
8
 Atoms. Timestep: 480
B 5.32937 5.76371 6.59332
H 6.69604 5.82448 4.79257
H 7.56949 5.41671 6.11531
H 7.14552 7.00615 5.83318
H 4.41008 6.45323 5.97479
H 5.66212 6.1694 7.75065
H 5.124 4.55915 6.50241
N 6.77413 6.02214 5.75083
8
 Atoms. Timestep: 500
B 5.40172 5.76338 6.62063
H 6.53004 5.75594 4.80488
H 7.44912 5.37425 6.13318
H 7.04142 7.03497 5.74041
H 4.5361 6.35259 6.07652
H 5.65751 6.24217 7.687
H 5.36319 4.53927 6.57299
N 6.72045 6.03167 5.72648
8
 Atoms. Timestep: 520
B 5.4689 5.76855 6.65418
H 6.51353 5.74263 4.76504
H 7.56812 5.52299 6.00082
H 7.01283 7.03956 5.62581
H 4.50683 6.21199 6.1389
H 5.63071 6.21186 7.74561
H 5.33907 4.55072 6.77706
N 6.66907 6.02908 5.69786
8
 Atoms. Timestep: 540
B 5.46142 5.73952 6.72774
H 6.41894 5.68964 4.75677
H 7.62566 5.60155 5.90548
H 6.76292 7.10212 5.55809
H 4.39267 6.19744 6.1266
H 5.84451 6.38137 7.76581
H 5.40251 4.52009 6.85227
N 6.68369 6.03629 5.64741
8
 Atoms. Timestep: 560
B 5.46264 5.71215 6.79835
H 6.42615 5.61846 4.72508
H 7.66199 5.75226 5.87878
H 6.70529 7.10806 5.46262
H 4.4496 6.23013 6.26866
H 5.87244 6.43479 7.71609
H 5.52046 4.52925 6.97154
N 6.66927 6.0445 5.58882
8
 Atoms. Timestep: 580
B 5.51105 5.73273 6.83699
H 6.51433 5.55626 4.69365
H 7.6315 5.79895 5.86413
H 6.63891 7.09379 5.27435
H 4.48397 6.03336 6.42633
H 5.85323 6.33161 7.78092
H 5.54695 4.54136 7.06631
N 6.62957 6.0513 5.55309
8
 Atoms. Timestep: 600
B 5.56772 5.73714 6.84365
H 6.36438 5.4212 4.80663
H 7.58481 5.89884 5.91844
H 6.52684 7.07324 5.20328
H 4.42199 5.97719 6.45914
H 6.01386 6.42916 7.76628
H 5.74871 4.49822 6.98992
N 6.58645 6.05201 5.54524
8
 Atoms. Timestep: 620
B 5.64341 5.7243 6.8265
H 6.34651 5.36564 4.85833
H 7.58712 5.93777 5.75693
H 6.38096 7.01511 5.09013
H 4.41849 6.02879 6.51558
H 6.0794 6.52604 7.71359
H 5.9175 4.55448 7.04829
N 6.5231 6.05263 5.56995
8
 Atoms. Timestep: 640
B 5.70638 5.74174 6.86279
H 6.30149 5.37581 4.80338
H 7.55661 6.10053 5.69038
H 6.20935 7.01329 5.13101
H 4.5379 5.85601 6.58127
H 6.04178 6.4892 7.73033
H 5.88105 4.62307 7.20353
N 6.48894 6.03703 5.53075
8
 Atoms. Timestep: 660
B 5.71099 5.73198 6.9462
H 6.29111 5.34876 4.7805
H 7.54682 6.14209 5.55689
H 6.04268 6.99088 5.17857
H 4.58623 5.80026 6.63444
H 6.10862 6.60887 7.65959
H 6.04473 4.57208 7.26581
N 6.47881 6.0442 5.47097
8
 Atoms. Timestep: 680
B 5.73239 5.70562 7.00177
H 6.25121 5.35211 4.75232
H 7.52089 6.20748 5.42866
H 6.05551 6.96047 4.99691
H 4.4861 5.77865 6.76931
H 6.14827 6.71734 7.62979
H 6.27936 4.62296 7.34583
N 6.45365 6.05196 5.43903
8
 Atoms. Timestep: 700
B 5.79687 5.73136 7.01435
H 6.24534 5.27283 4.8098
H 7.4717 6.14437 5.51046
H 5.99833 6.9586 4.98218
H 4.55009 5.53293 6.9175
H 6.10628 6.6855 7.73232
H 6.3174 4.72233 7.35972
N 6.40764 6.05514 5.40154
8
 Atoms. Timestep: 720
B 5.85142 5.74731 7.00829
H 6.15336 5.26758 4.83551
H 7.41632 6.193 5.48143
H 5.94447 6.91015 4.94187
H 4.71657 5.48008 6.88251
H 6.09807 6.72154 7.62838
H 6.52302 4.79108 7.2558
N 6.35393 6.03948 5.42667
8
 Atoms. Timestep: 740
B 5.90938 5.74827 6.95478
H 6.11698 5.24533 4.89115
H 7.34982 6.19515 5.28613
H 5.80084 6.87559 5.02398
H 4.737 5.4603 6.943
H 6.11072 6.82096 7.52486
H 6.75104 4.85007 7.33281
N 6.30818 6.03274 5.46964
8
 Atoms. Timestep: 760
B 5.98578 5.76672 6.95503
H 6.01031 5.23949 4.89228
H 7.27929 6.31557 5.27597
H 5.62344 6.82065 5.16033
H 4.79297 5.31192 7.05517
H 6.09553 6.87302 7.55336
H 6.72504 4.9095 7.47078
N 6.27351 6.01688 5.44044
8
 Atoms. Timestep: 780
B 6.02733 5.76428 7.06118
H 6.09467 5.23701 4.79874
H 7.1854 6.36649 5.11772
H 5.56005 6.78776 5.09675
H 4.88816 5.30823 7.03775
H 6.11281 6.88381 7.50382
H 6.8712 5.02031 7.34855
N 6.2282 6.00923 5.3946
8
 Atoms. Timestep: 800
B 6.05648 5.75848 7.10909
H 6.06701 5.17027 4.87634
H 7.13095 6.42986 5.10861
H 5.43593 6.6553 4.9599
H 4.99217 5.2795 7.27679
H 6.15562 6.86805 7.53781
H 7.05389 5.07964 7.31178
N 6.19691 6.02235 5.34564
8
 Atoms. Timestep: 820
B 6.10768 5.78321 7.09653
H 6.1691 5.11301 4.97726
H 7.05921 6.46486 5.09955
H 5.36671 6.61035 4.93002
H 5.11128 5.14497 7.4272
H 6.19721 6.91301 7.60985
H 7.15153 5.03869 7.32619
N 6.14174 6.0174 5.33399
8
 Atoms. Timestep: 840
B 6.18049 5.80543 7.06888
H 6.13803 5.14593 4.90768
H 6.92692 6.54654 5.06556
H 5.2522 6.44792 4.94958
H 5.13008 5.14033 7.26079
H 6.20122 6.95325 7.53032
H 7.2173 5.18115 7.14361
N 6.09909 5.99095 5.39192
8
 Atoms. Timestep: 860
B 6.23288 5.81737 6.97757
H 6.1638 5.11834 4.987
H 6.74746 6.63022 5.01145
H 5.11175 6.39264 5.27895
H 5.26322 5.18263 7.35203
H 6.197 6.92164 7.43665
H 7.26071 5.32164 7.17188
N 6.06738 5.97088 5.4352
8
 Atoms. Timestep: 880
B 6.29144 5.83572 6.96635
H 6.08048 5.12648 4.95003
H 6.58778 6.67325 4.94134
H 5.00298 6.22148 5.35578
H 5.46668 5.12314 7.4518
H 6.18662 6.98748 7.37278
H 7.42262 5.32245 7.25662
N 6.02197 5.96479 5.43739
8
 Atoms. Timestep: 900
B 6.37961 5.8609 7.06439
H 6.1225 5.13638 4.8709
H 6.45404 6.6891 4.91149
H 4.9403 6.21686 5.2592
H 5.51882 5.04241 7.43777
H 6.2055 7.04247 7.4307
H 7.6132 5.46643 6.98198
N 5.94629 5.93541 5.39292
8
 Atoms. Timestep: 920
B 6.45344 5.87956 7.09193
H 6.11234 5.08824 4.93953
H 6.42428 6.68672 4.93143
H 4.8434 6.05411 5.24144
H 5.79065 4.9878 7.65576
H 6.27219 6.97263 7.57303
H 7.57704 5.64814 6.90909
N 5.87752 5.93216 5.34609
8
 Atoms. Timestep: 940
B 6.50353 5.89495 7.06782
H 6.12585 5.09108 4.9805
H 6.24327 6.67143 4.81014
H 4.79992 6.038 5.21319
H 6.0753 4.94619 7.66072
H 6.2276 6.97268 7.50522
H 7.65519 5.72795 6.85141
N 5.83122 5.91959 5.38105
8
 Atoms. Timestep: 960
B 6.54413 5.92255 6.9923
H 6.04241 5.07654 4.97638
H 6.16379 6.66589 4.87142
H 4.75501 5.90041 5.4653
H 6.08015 4.90966 7.45949
H 6.12296 7.00185 7.44224
H 7.8236 5.91255 6.66934
N 5.80983 5.8969 5.4491
8
 Atoms. Timestep: 980
B 6.55921 5.95636 6.85559
H 5.98429 5.06008 4.99313
H 5.93677 6.7011 4.93358
H 4.78988 5.91308 5.80167
H 6.24174 4.91566 7.46789
H 6.12891 6.91242 7.5166
H 7.80326 6.06872 6.67929
N 5.80556 5.86338 5.51828
8
 Atoms. Timestep: 1000
B 6.63318 5.97466 6.84114
H 5.92325 5.05729 4.98895
H 5.79003 6.64393 4.89161
H 4.74331 5.72653 5.85033
H 6.54873 4.92702 7.46162
H 6.10999 6.90152 7.40959
H 7.7171 6.14792 6.55342
N 5.75225 5.86118 5.54633
8
 Atoms. Timestep: 1020
B 6.7343 6.00905 6.88922
H 5.99854 5.05458 4.98717
H 5.68582 6.67699 4.96929
H 4.64179 5.67121 5.7814
H 6.68723 4.9165 7.40802
H 6.22789 6.9461 7.48136
H 7.78776 6.32417 6.30064
N 5.6602 5.82142 5.5255
8
 Atoms. Timestep: 1040
B 6.79117 6.05345 6.88538
H 5.95703 5.09197 4.90831
H 5.60683 6.6651 4.9909
H 4.59543 5.51976 5.77173
H 6.89568 4.95598 7.42287
H 6.39559 6.91272 7.68158
H 7.84255 6.39847 6.15984
N 5.59746 5.79042 5.52794
8
 Atoms. Timestep: 1060
B 6.83277 6.06649 6.84242
H 5.93478 5.09154 4.92748
H 5.38571 6.64246 5.02711
H 4.61688 5.44796 5.88791
H 7.05215 4.97519 7.3172
H 6.33691 6.90553 7.56067
H 7.74905 6.45031 6.17086
N 5.58092 5.78257 5.56422
8
 Atoms. Timestep: 1080
B 6.83221 6.07436 6.7526
H 5.91443 5.10785 4.94319
H 5.29789 6.62411 5.10382
H 4.76542 5.35663 6.15499
H 7.03246 4.97052 7.22829
H 6.25419 6.8655 7.4624
H 7.68366 6.55273 6.14545
N 5.59045 5.77905 5.62302
8
 Atoms. Timestep: 1100
B 6.77656 6.09269 6.64996
H 5.80717 5.10015 4.93379
H 5.17914 6.60806 5.27067
H 4.8438 5.32678 6.27765
H 7.08066 5.00675 7.17666
H 6.3256 6.80783 7.56527
H 7.76654 6.63674 6.04238
N 5.62946 5.76427 5.68589
8
 Atoms. Timestep: 1120
B 6.81101 6.10918 6.63458
H 5.85076 5.15417 4.92353
H 5.15404 6.59389 5.31444
H 4.85226 5.22257 6.30338
H 7.2468 5.04768 7.04005
H 6.35448 6.84948 7.50494
H 7.68692 6.67639 5.87197
N 5.59272 5.74742 5.71976
8
 Atoms. Timestep: 1140
B 6.90809 6.13986 6.64097
H 5.8789 5.16331 4.9421
H 5.05277 6.56996 5.3546
H 4.7728 5.12442 6.21191
H 7.38542 5.10201 7.01342
H 6.47478 6.87382 7.47713
H 7.4997 6.72086 5.83277
N 5.52361 5.72302 5.72386
8
 Atoms. Timestep: 1160
B 6.94845 6.18209 6.62542
H 5.77229 5.20227 4.87593
H 4.99043 6.53899 5.39281
H 4.75794 5.07628 6.24322
H 7.48644 5.12598 6.98433
H 6.61596 6.85196 7.59633
H 7.54269 6.77889 5.7636
N 5.48523 5.68901 5.73412
8
 Atoms. Timestep: 1180
B 6.95954 6.19747 6.59631
H 5.6987 5.15512 4.90166
H 4.91662 6.52841 5.53554
H 4.88577 5.0411 6.38853
H 7.50483 5.1109 6.82093
H 6.53628 6.84787 7.57128
H 7.60779 6.87079 5.69809
N 5.4778 5.67859 5.7523
8
 Atoms. Timestep: 1200
B 6.93973 6.18378 6.52507
H 5.62247 5.17139 4.92131
H 4.81407 6.44193 5.57774
H 5.03885 5.03594 6.51946
H 7.49986 5.16721 6.78694
H 6.48902 6.77075 7.47309
H 7.48916 6.95827 5.74058
N 5.50712 5.68977 5.79989
8
 Atoms. Timestep: 1220
B 6.87403 6.1917 6.44674
H 5.63499 5.14853 4.977
H 4.84932 6.45887 5.71601
H 5.10145 4.99924 6.55034
H 7.55554 5.21643 6.7121
H 6.58852 6.70413 7.5099
H 7.39444 6.91485 5.71025
N 5.5456 5.69105 5.84914
8
 Atoms. Timestep: 1240
B 6.88921 6.21761 6.43073
H 5.66237 5.24373 4.95624
H 4.87921 6.4588 5.73788
H 5.04202 4.9612 6.55571
H 7.63841 5.19287 6.47508
H 6.66378 6.78475 7.53117
H 7.31178 6.98185 5.53565
N 5.52866 5.65812 5.88891
8
 Atoms. Timestep: 1260
B 6.98077 6.24252 6.41866
H 5.61946 5.18266 4.99651
H 4.75697 6.38197 5.78093
H 4.99632 4.85814 6.48921
H 7.74157 5.29748 6.42399
H 6.7827 6.80108 7.4861
H 7.14862 7.10257 5.47877
N 5.46888 5.63886 5.90796
8
 Atoms. Timestep: 1280
B 7.0242 6.28945 6.38173
H 5.53716 5.21534 4.9827
H 4.70551 6.34397 5.85201
H 5.09164 4.86612 6.6305
H 7.78887 5.40048 6.36868
H 6.88626 6.70527 7.47661
H 7.21428 7.1086 5.53679
N 5.42266 5.60152 5.92274
8
 Atoms. Timestep: 1300
B 7.02738 6.32431 6.34149
H 5.37457 5.10624 5.04769
H 4.69149 6.31438 6.01233
H 5.22068 4.83883 6.6825
H 7.74512 5.31497 6.18084
H 6.82609 6.6855 7.50659
H 7.22881 7.16298 5.54224
N 5.42998 5.59012 5.94486
8
 Atoms. Timestep: 1320
B 6.98312 6.30258 6.28256
H 5.29894 5.14755 5.0843
H 4.65974 6.23401 6.10908
H 5.36011 4.86799 6.76316
H 7.78475 5.32485 6.11483
H 6.84378 6.67408 7.48838
H 7.0855 7.28443 5.51025
N 5.46798 5.59903 5.98334
8
 Atoms. Timestep: 1340
B 6.89968 6.27615 6.22232
H 5.43601 5.19993 5.11471
H 4.75234 6.28353 6.21378
H 5.4317 4.78775 6.72313
H 7.78778 5.51895 6.03555
H 6.97274 6.59794 7.37023
H 6.96042 7.25123 5.4318
N 5.51034 5.61181 6.04273
8
 Atoms. Timestep: 1360
B 6.90249 6.31207 6.18587
H 5.36867 5.31781 5.12025
H 4.76819 6.23359 6.28423
H 5.32105 4.73881 6.7125
H 7.68814 5.49424 5.78187
H 7.02973 6.68987 7.31194
H 6.79358 7.19107 5.38535
N 5.53471 5.58224 6.09178
8
 Atoms. Timestep: 1380
B 6.97126 6.36537 6.13772
H 5.27533 5.24919 5.17006
H 4.74174 6.16435 6.44837
H 5.45139 4.65168 6.70375
H 7.77191 5.48419 5.65816
H 7.20188 6.78708 7.31423
H 6.69958 7.27234 5.38236
N 5.46934 5.54517 6.12315
8
 Atoms. Timestep: 1400
B 7.00433 6.40518 6.0683
H 5.13304 5.25078 5.23584
H 4.66881 6.02323 6.59094
H 5.61843 4.66262 6.7644
H 7.87505 5.63494 5.6501
H 7.27615 6.65209 7.25554
H 6.78217 7.40038 5.34072
N 5.4287 5.51336 6.16523
8
 Atoms. Timestep: 1420
B 7.01346 6.43878 6.02445
H 5.00891 5.15994 5.3535
H 4.74551 5.97667 6.74715
H 5.68938 4.61476 6.72455
H 7.6518 5.63134 5.48739
H 7.15174 6.61182 7.16513
H 6.77943 7.42524 5.33703
N 5.445 5.50204 6.20069
8
 Atoms. Timestep: 1440
B 6.9492 6.43267 5.9838
H 4.95748 5.2463 5.40605
H 4.88313 5.99741 6.85253
H 5.81227 4.6419 6.74827
H 7.6022 5.59179 5.36251
H 7.30983 6.67935 7.1401
H 6.62064 7.41385 5.38369
N 5.48324 5.49598 6.22645
8
 Atoms. Timestep: 1460
B 6.83476 6.3866 5.9425
H 5.02871 5.33747 5.43708
H 4.94204 5.99141 6.9134
H 5.7823 4.56583 6.67095
H 7.71146 5.74238 5.24333
H 7.49305 6.64586 7.01511
H 6.42208 7.37373 5.36529
N 5.55766 5.52537 6.27602
8
 Atoms. Timestep: 1480
B 6.81238 6.38294 5.89631
H 5.05099 5.43112 5.48106
H 5.02982 5.97132 6.98745
H 5.77681 4.54745 6.69492
H 7.38822 5.74813 5.03611
H 7.33726 6.66469 6.94799
H 6.25743 7.3752 5.378
N 5.61343 5.52239 6.3202
8
 Atoms. Timestep: 1500
B 6.83369 6.44182 5.83725
H 4.90573 5.3034 5.62285
H 5.13443 5.94481 7.10547
H 5.94104 4.55391 6.7117
H 7.30253 5.78418 4.99457
H 7.53623 6.69805 6.75241
H 6.25489 7.43895 5.4241
N 5.58025 5.47801 6.35965
8
 Atoms. Timestep: 1520
B 6.82435 6.49718 5.76164
H 4.80586 5.16258 5.79955
H 5.12412 5.79922 7.22783
H 6.04613 4.56651 6.72217
H 7.41116 5.8505 4.83726
H 7.71238 6.57669 6.65214
H 6.30391 7.52637 5.42111
N 5.56398 5.45255 6.41448
8
 Atoms. Timestep: 1540
B 6.82831 6.51977 5.68987
H 4.8431 5.17678 5.81986
H 5.20042 5.80241 7.29646
H 6.13153 4.56665 6.7014
H 7.11563 5.86074 4.63499
H 7.53682 6.52066 6.73208
H 6.26683 7.57193 5.48453
N 5.58301 5.43389 6.46918
8
 Atoms. Timestep: 1560
B 6.77071 6.5066 5.67707
H 4.83288 5.20387 5.89029
H 5.29272 5.85104 7.3157
H 6.11102 4.53224 6.74249
H 6.98005 5.92364 4.68246
H 7.70913 6.5775 6.4188
H 6.16987 7.56307 5.55467
N 5.62735 5.43318 6.48369
8
 Atoms. Timestep: 1580
B 6.68485 6.46403 5.68914
H 4.8439 5.27629 5.95229
H 5.37966 5.87129 7.33145
H 6.08074 4.5105 6.76838
H 6.88865 5.9736 4.61454
H 7.77541 6.56738 6.14663
H 6.02329 7.50797 5.60936
N 5.70102 5.46204 6.48736
8
 Atoms. Timestep: 1600
B 6.61183 6.42637 5.65007
H 4.91549 5.34784 5.94562
H 5.52259 5.89475 7.38275
H 6.2016 4.53389 6.67817
H 6.57841 5.95761 4.44238
H 7.69769 6.54167 6.3221
H 5.98123 7.48057 5.69768
N 5.76411 5.48757 6.51421
8
 Atoms. Timestep: 1620
B 6.5853 6.47373 5.5928
H 4.80224 5.23325 6.23129
H 5.66073 5.81216 7.47718
H 6.28856 4.53984 6.65991
H 6.57852 5.93681 4.47398
H 7.73514 6.51514 6.0831
H 6.03445 7.5398 5.65784
N 5.77009 5.46384 6.5502
8
 Atoms. Timestep: 1640
B 6.58347 6.52231 5.53153
H 4.7685 5.15088 6.43362
H 5.84558 5.77201 7.53371
H 6.33523 4.5291 6.57291
H 6.55671 5.99369 4.50294
H 7.70167 6.50863 5.83736
H 6.01438 7.60081 5.56489
N 5.76277 5.42793 6.60732
8
 Atoms. Timestep: 1660
B 6.55836 6.53357 5.45984
H 4.78262 5.29673 6.47007
H 5.92999 5.72665 7.58931
H 6.31861 4.49056 6.50588
H 6.29724 5.98342 4.38139
H 7.68538 6.55051 5.96912
H 5.93362 7.60907 5.62495
N 5.80175 5.41197 6.65582
8
 Atoms. Timestep: 1680
B 6.4933 6.52615 5.45703
H 4.81623 5.37263 6.52913
H 6.02201 5.67404 7.61809
H 6.16857 4.40053 6.57354
H 6.25034 5.94799 4.33488
H 7.74769 6.59968 5.75555
H 5.87487 7.54096 5.69154
N 5.85677 5.42635 6.6607
8
 Atoms. Timestep: 1700
B 6.43962 6.48189 5.50232
H 4.85226 5.51384 6.63094
H 6.18635 5.76477 7.54707
H 6.19979 4.41961 6.52251
H 6.16792 5.96561 4.45203
H 7.61916 6.6254 5.48345
H 5.81696 7.46669 5.68164
N 5.90085 5.44477 6.63898
8
 Atoms. Timestep: 1720
B 6.37875 6.42814 5.49447
H 4.90157 5.47036 6.7181
H 6.36343 5.74219 7.50973
H 6.25266 4.46999 6.43216
H 5.92174 5.94799 4.51384
H 7.55044 6.56918 5.62721
H 5.77413 7.50811 5.74149
N 5.95341 5.48967 6.62897
8
 Atoms. Timestep: 1740
B 6.31604 6.45793 5.4454
H 4.95333 5.38113 6.92776
H 6.43275 5.71718 7.53748
H 6.32842 4.48579 6.41783
H 5.87008 5.91652 4.38031
H 7.59935 6.45755 5.49722
H 5.83988 7.58218 5.75301
N 5.98323 5.47865 6.66889
8
 Atoms. Timestep: 1760
B 6.29663 6.50764 5.40362
H 4.97688 5.33559 6.99609
H 6.54305 5.79888 7.48285
H 6.38244 4.46525 6.46969
H 5.76236 5.96655 4.40569
H 7.50748 6.45516 5.15992
H 5.87506 7.57208 5.65516
N 5.99652 5.43651 6.72571
8
 Atoms. Timestep: 1780
B 6.26936 6.50552 5.33359
H 5.02607 5.37268 7.04422
H 6.52509 5.77507 7.55398
H 6.39059 4.42862 6.56251
H 5.49189 6.04116 4.5917
H 7.4378 6.4801 5.19649
H 5.86272 7.55168 5.76084
N 6.03993 5.43416 6.74113
8
 Atoms. Timestep: 1800
B 6.20705 6.48001 5.34246
H 5.05249 5.41426 6.95535
H 6.58024 5.77901 7.55827
H 6.38435 4.42834 6.58247
H 5.41043 6.02675 4.53327
H 7.39447 6.40092 5.03044
H 5.89349 7.58977 5.91074
N 6.08933 5.45457 6.74424
8
 Atoms. Timestep: 1820
B 6.17119 6.44228 5.42076
H 5.10855 5.45694 7.03973
H 6.64915 5.87254 7.46855
H 6.46021 4.475 6.51059
H 5.33525 6.00689 4.57121
H 7.26406 6.35072 4.81611
H 5.90937 7.60299 5.7714
N 6.1162 5.47468 6.7119
8
 Atoms. Timestep: 1840
B 6.13126 6.40953 5.42491
H 5.21221 5.34649 7.16443
H 6.78421 5.8433 7.38036
H 6.49649 4.52557 6.45804
H 5.15705 5.98075 4.84287
H 7.25432 6.28162 4.97336
H 5.92979 7.49608 5.77898
N 6.13933 5.52074 6.67867
8
 Atoms. Timestep: 1860
B 6.06612 6.41534 5.38733
H 5.26976 5.42657 7.24571
H 6.87338 5.8526 7.36179
H 6.47791 4.54287 6.36484
H 5.16969 5.9976 4.71071
H 7.14019 6.21808 4.87624
H 5.93353 7.57056 5.82363
N 6.1874 5.50665 6.72303
8
 Atoms. Timestep: 1880
B 6.03225 6.44043 5.35798
H 5.34652 5.4706 7.35032
H 6.97741 5.82675 7.30912
H 6.4406 4.45214 6.55029
H 5.09939 5.99161 4.67447
H 7.04486 6.3017 4.66223
H 5.8604 7.66358 5.72268
N 6.22034 5.4803 6.7538
8
 Atoms. Timestep: 1900
B 6.0038 6.45016 5.31042
H 5.43897 5.59101 7.42349
H 7.04466 5.81237 7.2567
H 6.39534 4.43349 6.5947
H 4.93894 5.93485 4.95522
H 7.08203 6.3528 4.71919
H 5.79536 7.52906 5.79812
N 6.24757 5.47656 6.75632
8
 Atoms. Timestep: 1920
B 5.9571 6.42209 5.34816
H 5.47556 5.66731 7.39232
H 7.14443 5.76268 7.18429
H 6.31108 4.46653 6.52136
H 4.97992 5.91661 4.83405
H 6.93619 6.29895 4.64854
H 5.807 7.47891 5.8228
N 6.28653 5.50268 6.75178
8
 Atoms. Timestep: 1940
B 5.93406 6.37088 5.415
H 5.61658 5.68189 7.49419
H 7.18828 5.73294 7.12097
H 6.29479 4.49123 6.51079
H 4.97052 5.9018 4.84841
H 6.85129 6.27297 4.62456
H 5.77149 7.59384 5.72993
N 6.30153 5.53621 6.70554
8
 Atoms. Timestep: 1960
B 5.91928 6.3578 5.41689
H 5.69439 5.69177 7.52817
H 7.24603 5.78871 6.92061
H 6.31097 4.51793 6.46968
H 4.83317 5.82052 5.14253
H 6.9226 6.20875 4.70235
H 5.72027 7.56749 5.769
N 6.31047 5.55198 6.68954
8
 Atoms. Timestep: 1980
B 5.86165 6.37264 5.3969
H 5.75709 5.72598 7.55407
H 7.28082 5.79278 6.97712
H 6.33471 4.51227 6.50971
H 4.80347 5.86327 5.01977
H 6.72308 6.17106 4.54241
H 5.78906 7.47679 5.76485
N 6.35772 5.54432 6.71671
8
 Atoms. Timestep: 2000
B 5.81105 6.37584 5.36771
H 5.76612 5.72404 7.545
H 7.31582 5.77676 7.0214
H 6.40833 4.48568 6.64828
H 4.72543 5.95087 5.05377
H 6.5804 6.19226 4.45978
H 5.81074 7.52664 5.70706
N 6.40258 5.5337 6.73442
8
 Atoms. Timestep: 2020
B 5.78631 6.37165 5.34426
H 5.79779 5.7746 7.53072
H 7.31514 5.88468 6.92683
H 6.45877 4.49157 6.6049
H 4.64925 5.9266 5.38892
H 6.60739 6.10647 4.47792
H 5.79781 7.60659 5.74997
N 6.42028 5.52734 6.73509
8
 Atoms. Timestep: 2040
B 5.77079 6.34833 5.40149
H 5.8773 5.68897 7.58168
H 7.35128 5.86526 6.89809
H 6.50393 4.52634 6.56728
H 4.61448 5.89843 5.31355
H 6.39941 5.98952 4.40199
H 5.86834 7.55283 5.68458
N 6.43307 5.56456 6.70751
8
 Atoms. Timestep: 2060
B 5.74979 6.30304 5.46799
H 5.93823 5.69161 7.57678
H 7.36599 5.90022 6.84566
H 6.49698 4.5766 6.45368
H 4.58437 5.99206 5.34676
H 6.33541 5.93693 4.46604
H 5.88371 7.43551 5.58402
N 6.44999 5.59867 6.66865
8
 Atoms. Timestep: 2080
B 5.71623 6.29459 5.45708
H 5.98087 5.73964 7.56793
H 7.37055 5.9703 6.69821
H 6.55212 4.57123 6.49049
H 4.55917 5.96374 5.67064
H 6.36623 5.84442 4.52393
H 5.86807 7.53557 5.60007
N 6.46928 5.59862 6.65719
8
 Atoms. Timestep: 2100
B 5.66542 6.2994 5.43614
H 6.12998 5.79998 7.62609
H 7.43764 5.9226 6.73027
H 6.60643 4.55345 6.6321
H 4.49748 5.9112 5.59908
H 6.0432 5.84863 4.3456
H 5.85435 7.58067 5.62087
N 6.51762 5.59551 6.67315
8
 Atoms. Timestep: 2120
B 5.59107 6.29133 5.42846
H 6.13465 5.9186 7.57202
H 7.51553 5.88005 6.65627
H 6.52774 4.55646 6.65394
H 4.43377 5.98888 5.62395
H 5.97544 5.91676 4.34153
H 5.78507 7.44648 5.56667
N 6.58903 5.59525 6.68905
8
 Atoms. Timestep: 2140
B 5.5363 6.29498 5.42478
H 6.30055 5.9993 7.5851
H 7.54214 5.84133 6.53583
H 6.53712 4.56217 6.71982
H 4.48284 5.9164 5.88914
H 6.08325 5.79961 4.4685
H 5.70927 7.43706 5.5681
N 6.61108 5.60325 6.66674
8
 Atoms. Timestep: 2160
B 5.53789 6.26346 5.48433
H 6.56037 6.00877 7.62519
H 7.54215 5.78655 6.36962
H 6.53608 4.59482 6.74547
H 4.44256 5.76944 5.82959
H 5.82967 5.69471 4.40631
H 5.64632 7.564 5.50979
N 6.61685 5.63739 6.64083
8
 Atoms. Timestep: 2180
B 5.52955 6.18684 5.56999
H 6.61965 6.14153 7.53719
H 7.5099 5.77775 6.18106
H 6.41748 4.65623 6.68912
H 4.39314 5.88068 5.87845
H 5.79649 5.75992 4.45707
H 5.6257 7.46457 5.49406
N 6.63719 5.67775 6.59254
8
 Atoms. Timestep: 2200
B 5.49231 6.17971 5.60385
H 6.67973 6.25716 7.42688
H 7.52868 5.77172 6.13623
H 6.57937 4.69522 6.86648
H 4.49099 5.85338 6.18878
H 5.84913 5.63289 4.59403
H 5.63628 7.30696 5.60569
N 6.63723 5.69492 6.52491
8
 Atoms. Timestep: 2220
B 5.44704 6.17268 5.61171
H 6.7465 6.36811 7.36
H 7.54352 5.81141 6.04385
H 6.67278 4.71157 6.90762
H 4.46375 5.76438 6.26068
H 5.387 5.55343 4.51881
H 5.55259 7.40547 5.51924
N 6.70058 5.69341 6.53369
8
 Atoms. Timestep: 2240
B 5.3544 6.12887 5.63084
H 6.82918 6.35606 7.37558
H 7.60386 5.78658 5.99593
H 6.66537 4.72173 6.85867
H 4.38138 5.94402 6.37888
H 5.27085 5.54737 4.53614
H 5.48307 7.42297 5.38865
N 6.7815 5.71547 6.52439
8
 Atoms. Timestep: 2260
B 5.26664 6.1379 5.64943
H 6.98517 6.3187 7.36794
H 7.64406 5.79151 5.96536
H 6.77573 4.73663 6.83842
H 4.50503 5.97349 6.54632
H 5.43429 5.32294 4.80872
H 5.50331 7.27593 5.38252
N 6.80536 5.73418 6.48324
8
 Atoms. Timestep: 2280
B 5.2718 6.13462 5.69513
H 7.05161 6.37692 7.3105
H 7.5224 5.8782 5.7755
H 6.81794 4.72933 6.75961
H 4.46278 5.92211 6.58754
H 5.15377 5.18412 4.90705
H 5.35036 7.18981 5.22901
N 6.83628 5.74663 6.47227
8
 Atoms. Timestep: 2300
B 5.28575 6.06392 5.76667
H 7.10794 6.39364 7.26231
H 7.48808 5.91768 5.69719
H 6.91613 4.76158 6.74543
H 4.45174 6.14509 6.71283
H 4.98715 5.20579 4.89246
H 5.31195 7.17612 5.13809
N 6.83237 5.77835 6.42572
8
 Atoms. Timestep: 2320
B 5.28543 6.03241 5.83391
H 7.02766 6.48545 7.14934
H 7.51778 5.94916 5.68194
H 6.99879 4.82887 6.74637
H 4.65214 6.19644 6.85045
H 5.1344 5.04331 5.16223
H 5.53381 7.14435 5.25151
N 6.78964 5.79925 6.34574
8
 Atoms. Timestep: 2340
B 5.33752 6.02719 5.88803
H 6.96507 6.58885 7.04253
H 7.40108 5.95065 5.53142
H 6.96411 4.8663 6.76798
H 4.68223 6.08775 6.88816
H 4.92784 5.04923 5.32125
H 5.2428 6.9828 5.19896
N 6.79813 5.81199 6.31053
8
 Atoms. Timestep: 2360
B 5.27092 5.99603 5.91726
H 7.27189 6.59363 6.94312
H 7.44954 5.82809 5.49232
H 7.02541 4.90928 6.77172
H 4.706 6.14866 7.03084
H 4.85435 4.99101 5.29267
H 5.0665 6.93864 5.19964
N 6.8359 5.84434 6.28941
8
 Atoms. Timestep: 2380
B 5.15748 5.9782 5.95448
H 7.32726 6.66787 6.8259
H 7.41712 5.73664 5.40159
H 7.00212 4.97911 6.83645
H 4.7181 6.13788 7.09984
H 5.08245 4.85663 5.44634
H 5.18635 7.04075 5.2614
N 6.89772 5.8574 6.25061
8
 Atoms. Timestep: 2400
B 5.14263 5.97721 6.00081
H 7.31785 6.78418 6.62915
H 7.34928 5.69664 5.33717
H 7.13875 5.04218 6.88588
H 4.62827 6.04159 7.06283
H 4.87323 4.92446 5.49057
H 4.95434 6.92044 5.21149
N 6.94286 5.85884 6.23304
8
 Atoms. Timestep: 2420
B 5.13047 5.94969 6.02334
H 7.37655 6.81179 6.49391
H 7.33855 5.6287 5.328
H 7.35372 5.18241 6.91189
H 4.74713 6.11971 7.16004
H 4.78003 4.93297 5.47534
H 4.9235 6.86784 5.31386
N 6.93384 5.8705 6.21095
8
 Atoms. Timestep: 2440
B 5.12679 5.92905 6.05915
H 7.24158 6.89057 6.33031
H 7.30888 5.57741 5.30201
H 7.25775 5.24452 6.95108
H 4.87646 6.13914 7.27427
H 4.90657 4.79756 5.58847
H 5.09249 6.94546 5.40668
N 6.92494 5.88276 6.1712
8
 Atoms. Timestep: 2460
B 5.20543 5.92573 6.12131
H 7.21622 6.89878 6.28166
H 7.31916 5.51373 5.30632
H 7.22838 5.34363 6.97721
H 4.78362 6.03796 7.26843
H 4.82047 4.84084 5.67463
H 4.88024 6.86066 5.3157
N 6.89539 5.8924 6.12531
8
 Atoms. Timestep: 2480
B 5.27341 5.9041 6.14453
H 7.31022 6.87042 6.14656
H 7.23404 5.49353 5.2957
H 7.25029 5.3639 6.91731
H 4.96421 6.11618 7.27011
H 4.90987 4.84533 5.73964
H 4.78717 6.7434 5.40594
N 6.82811 5.91358 6.11088
8
 Atoms. Timestep: 2500
B 5.26338 5.88479 6.16932
H 7.2205 6.91685 6.112
H 7.05793 5.48079 5.22431
H 7.21496 5.36987 6.88381
H 5.08155 6.18262 7.35847
H 5.04955 4.69714 5.91455
H 4.93368 6.75723 5.43922
N 6.82854 5.93049 6.08053
8
 Atoms. Timestep: 2520
B 5.23275 5.88229 6.23419
H 7.22363 6.9328 6.08747
H 7.20926 5.58952 5.16761
H 7.40973 5.40097 6.77753
H 4.88514 6.218 7.40359
H 4.86091 4.68856 6.02933
H 4.77532 6.60726 5.32473
N 6.86604 5.93009 6.04064
8
 Atoms. Timestep: 2540
B 5.18416 5.85569 6.2703
H 7.17881 6.9566 6.12294
H 7.15739 5.64425 5.09984
H 7.47911 5.40192 6.70416
H 5.01271 6.38307 7.34224
H 4.86839 4.70194 6.15217
H 4.68504 6.50745 5.32952
N 6.90228 5.93931 6.01559
8
 Atoms. Timestep: 2560
B 5.1727 5.83491 6.2848
H 7.17087 6.96513 6.1096
H 7.06728 5.67558 5.06152
H 7.41915 5.33984 6.65105
H 5.1617 6.42922 7.30924
H 5.01252 4.66723 6.39197
H 4.76621 6.48766 5.37044
N 6.89567 5.95753 5.9942
8
 Atoms. Timestep: 2580
B 5.25206 5.84838 6.31522
H 7.26674 6.92212 6.10742
H 7.12426 5.69923 5.04724
H 7.42636 5.36103 6.59487
H 5.02143 6.4514 7.40571
H 4.9883 4.62026 6.46744
H 4.63689 6.28765 5.35534
N 6.844 5.96306 5.96472
8
 Atoms. Timestep: 2600
B 5.3075 5.8443 6.34035
H 7.1646 6.9532 6.06728
H 6.96815 5.68392 5.01286
H 7.34902 5.33957 6.58197