ITEM: TIMESTEP
0
ITEM: NUMBER OF ATOMS
8
ITEM: BOX BOUNDS xy xz yz pp pp pp
0.0000000000000000e+00 1.2000000000000000e+01 0.0000000000000000e+00
0.0000000000000000e+00 1.2000000000000000e+01 0.0000000000000000e+00
0.0000000000000000e+00 1.2000000000000000e+01 0.0000000000000000e+00
ITEM: ATOMS id type x y z
1 1 5.74046 6.33007 5.41224
2 2 7.13765 6.17173 7.19603
3 2 6.99131 4.6591 6.48592
4 2 5.76199 5.3298 7.42483
5 2 5.30281 7.3409 5.86648
6 2 4.86235 5.64183 4.93919
7 2 6.6291 6.51884 4.57517
8 3 6.45143 5.56858 6.69633
ITEM: TIMESTEP
100
ITEM: NUMBER OF ATOMS
8
ITEM: BOX BOUNDS xy xz yz pp pp pp
0.0000000000000000e+00 1.2000000000000000e+01 0.0000000000000000e+00
0.0000000000000000e+00 1.2000000000000000e+01 0.0000000000000000e+00
0.0000000000000000e+00 1.2000000000000000e+01 0.0000000000000000e+00
ITEM: ATOMS id type x y z
1 1 5.53338 6.24867 5.49795
2 2 7.49393 6.20862 6.63475
3 2 6.94188 4.61899 6.45206
4 2 6.29038 5.61118 7.61212
5 2 5.23062 7.35634 6.0012
6 2 4.60992 5.43527 5.47188
7 2 6.11243 6.22878 4.46668
8 3 6.61161 5.64588 6.61942
ITEM: TIMESTEP
200
ITEM: NUMBER OF ATOMS
8
ITEM: BOX BOUNDS xy xz yz pp pp pp
0.0000000000000000e+00 1.2000000000000000e+01 0.0000000000000000e+00
0.0000000000000000e+00 1.2000000000000000e+01 0.0000000000000000e+00
0.0000000000000000e+00 1.2000000000000000e+01 0.0000000000000000e+00
ITEM: ATOMS id type x y z
1 1 5.30697 6.09915 5.72748
2 2 7.56 6.28235 6.04843
3 2 7.09385 4.72436 6.33007
4 2 6.83374 5.95301 7.46287
5 2 5.25926 7.33206 5.80046
6 2 4.52398 5.46617 6.44041
7 2 5.63849 5.77005 4.53136
8 3 6.76983 5.75631 6.44415
ITEM: TIMESTEP
300
ITEM: NUMBER OF ATOMS
8
ITEM: BOX BOUNDS xy xz yz pp pp pp
0.0000000000000000e+00 1.2000000000000000e+01 0.0000000000000000e+00
0.0000000000000000e+00 1.2000000000000000e+01 0.0000000000000000e+00
0.0000000000000000e+00 1.2000000000000000e+01 0.0000000000000000e+00
ITEM: ATOMS id type x y z
1 1 5.25753 5.94253 6.0614
2 2 7.24516 6.18667 5.34044
3 2 7.1462 4.88918 6.36583
4 2 7.30429 6.44288 6.91124
5 2 4.9286 7.02543 5.76498
6 2 4.82046 5.607 7.1298
7 2 4.95902 5.165 5.1806
8 3 6.84408 5.89226 6.18088
ITEM: TIMESTEP
400
ITEM: NUMBER OF ATOMS
8
ITEM: BOX BOUNDS xy xz yz pp pp pp
0.0000000000000000e+00 1.2000000000000000e+01 0.0000000000000000e+00
0.0000000000000000e+00 1.2000000000000000e+01 0.0000000000000000e+00
0.0000000000000000e+00 1.2000000000000000e+01 0.0000000000000000e+00
ITEM: ATOMS id type x y z
1 1 5.31668 5.83875 6.35857
2 2 6.87514 5.85007 4.97197
3 2 7.35213 5.19419 6.38838
4 2 7.2566 6.86528 6.21534
5 2 4.58496 6.82669 5.91866
6 2 5.1828 5.71742 7.60695
7 2 4.92157 4.77449 5.91639
8 3 6.81492 5.9786 5.92844
ITEM: TIMESTEP
500
ITEM: NUMBER OF ATOMS
8
ITEM: BOX BOUNDS xy xz yz pp pp pp
0.0000000000000000e+00 1.2000000000000000e+01 0.0000000000000000e+00
0.0000000000000000e+00 1.2000000000000000e+01 0.0000000000000000e+00
0.0000000000000000e+00 1.2000000000000000e+01 0.0000000000000000e+00
ITEM: ATOMS id type x y z
1 1 5.40172 5.76338 6.62063
2 2 6.53004 5.75594 4.80488
3 2 7.44912 5.37425 6.13318
4 2 7.04142 7.03497 5.74041
5 2 4.5361 6.35259 6.07652
6 2 5.65751 6.24217 7.687
7 2 5.36319 4.53927 6.57299
8 3 6.72045 6.03167 5.72648
ITEM: TIMESTEP
600
ITEM: NUMBER OF ATOMS
8
ITEM: BOX BOUNDS xy xz yz pp pp pp
0.0000000000000000e+00 1.2000000000000000e+01 0.0000000000000000e+00
0.0000000000000000e+00 1.2000000000000000e+01 0.0000000000000000e+00
0.0000000000000000e+00 1.2000000000000000e+01 0.0000000000000000e+00
ITEM: ATOMS id type x y z
1 1 5.56772 5.73714 6.84365
2 2 6.36438 5.4212 4.80663
3 2 7.58481 5.89884 5.91844
4 2 6.52684 7.07324 5.20328
5 2 4.42199 5.97719 6.45914
6 2 6.01386 6.42916 7.76628
7 2 5.74871 4.49822 6.98992
8 3 6.58645 6.05201 5.54524
ITEM: TIMESTEP
700
ITEM: NUMBER OF ATOMS
8
ITEM: BOX BOUNDS xy xz yz pp pp pp
0.0000000000000000e+00 1.2000000000000000e+01 0.0000000000000000e+00
0.0000000000000000e+00 1.2000000000000000e+01 0.0000000000000000e+00
0.0000000000000000e+00 1.2000000000000000e+01 0.0000000000000000e+00
ITEM: ATOMS id type x y z
1 1 5.79687 5.73136 7.01435
2 2 6.24534 5.27283 4.8098
3 2 7.4717 6.14437 5.51046
4 2 5.99833 6.9586 4.98218
5 2 4.55009 5.53293 6.9175
6 2 6.10628 6.6855 7.73232
7 2 6.3174 4.72233 7.35972
8 3 6.40764 6.05514 5.40154
ITEM: TIMESTEP
800
ITEM: NUMBER OF ATOMS
8
ITEM: BOX BOUNDS xy xz yz pp pp pp
0.0000000000000000e+00 1.2000000000000000e+01 0.0000000000000000e+00
0.0000000000000000e+00 1.2000000000000000e+01 0.0000000000000000e+00
0.0000000000000000e+00 1.2000000000000000e+01 0.0000000000000000e+00
ITEM: ATOMS id type x y z
1 1 6.05648 5.75848 7.10909
2 2 6.06701 5.17027 4.87634
3 2 7.13095 6.42986 5.10861
4 2 5.43593 6.6553 4.9599
5 2 4.99217 5.2795 7.27679
6 2 6.15562 6.86805 7.53781
7 2 7.05389 5.07964 7.31178
8 3 6.19691 6.02235 5.34564
ITEM: TIMESTEP
900
ITEM: NUMBER OF ATOMS
8
ITEM: BOX BOUNDS xy xz yz pp pp pp
0.0000000000000000e+00 1.2000000000000000e+01 0.0000000000000000e+00
0.0000000000000000e+00 1.2000000000000000e+01 0.0000000000000000e+00
0.0000000000000000e+00 1.2000000000000000e+01 0.0000000000000000e+00
ITEM: ATOMS id type x y z
1 1 6.37961 5.8609 7.06439
2 2 6.1225 5.13638 4.8709
3 2 6.45404 6.6891 4.91149
4 2 4.9403 6.21686 5.2592
5 2 5.51882 5.04241 7.43777
6 2 6.2055 7.04247 7.4307
7 2 7.6132 5.46643 6.98198
8 3 5.94629 5.93541 5.39292
ITEM: TIMESTEP
1000
ITEM: NUMBER OF ATOMS
8
ITEM: BOX BOUNDS xy xz yz pp pp pp
0.0000000000000000e+00 1.2000000000000000e+01 0.0000000000000000e+00
0.0000000000000000e+00 1.2000000000000000e+01 0.0000000000000000e+00
0.0000000000000000e+00 1.2000000000000000e+01 0.0000000000000000e+00
ITEM: ATOMS id type x y z
1 1 6.63318 5.97466 6.84114
2 2 5.92325 5.05729 4.98895
3 2 5.79003 6.64393 4.89161
4 2 4.74331 5.72653 5.85033
5 2 6.54873 4.92702 7.46162
6 2 6.10999 6.90152 7.40959
7 2 7.7171 6.14792 6.55342
8 3 5.75225 5.86118 5.54633
ITEM: TIMESTEP
1100
ITEM: NUMBER OF ATOMS
8
ITEM: BOX BOUNDS xy xz yz pp pp pp
0.0000000000000000e+00 1.2000000000000000e+01 0.0000000000000000e+00
0.0000000000000000e+00 1.2000000000000000e+01 0.0000000000000000e+00
0.0000000000000000e+00 1.2000000000000000e+01 0.0000000000000000e+00
ITEM: ATOMS id type x y z
1 1 6.77656 6.09269 6.64996
2 2 5.80717 5.10015 4.93379
3 2 5.17914 6.60806 5.27067
4 2 4.8438 5.32678 6.27765
5 2 7.08066 5.00675 7.17666
6 2 6.3256 6.80783 7.56527
7 2 7.76654 6.63674 6.04238
8 3 5.62946 5.76427 5.68589
ITEM: TIMESTEP
1200
ITEM: NUMBER OF ATOMS
8
ITEM: BOX BOUNDS xy xz yz pp pp pp
0.0000000000000000e+00 1.2000000000000000e+01 0.0000000000000000e+00
0.0000000000000000e+00 1.2000000000000000e+01 0.0000000000000000e+00
0.0000000000000000e+00 1.2000000000000000e+01 0.0000000000000000e+00
ITEM: ATOMS id type x y z
1 1 6.93973 6.18378 6.52507
2 2 5.62247 5.17139 4.92131
3 2 4.81407 6.44193 5.57774
4 2 5.03885 5.03594 6.51946
5 2 7.49986 5.16721 6.78694
6 2 6.48902 6.77075 7.47309
7 2 7.48916 6.95827 5.74058
8 3 5.50712 5.68977 5.79989
ITEM: TIMESTEP
1300
ITEM: NUMBER OF ATOMS
8
ITEM: BOX BOUNDS xy xz yz pp pp pp
0.0000000000000000e+00 1.2000000000000000e+01 0.0000000000000000e+00
0.0000000000000000e+00 1.2000000000000000e+01 0.0000000000000000e+00
0.0000000000000000e+00 1.2000000000000000e+01 0.0000000000000000e+00
ITEM: ATOMS id type x y z
1 1 7.02738 6.32431 6.34149
2 2 5.37457 5.10624 5.04769
3 2 4.69149 6.31438 6.01233
4 2 5.22068 4.83883 6.6825
5 2 7.74512 5.31497 6.18084
6 2 6.82609 6.6855 7.50659
7 2 7.22881 7.16298 5.54224
8 3 5.42998 5.59012 5.94486
ITEM: TIMESTEP
1400
ITEM: NUMBER OF ATOMS
8
ITEM: BOX BOUNDS xy xz yz pp pp pp
0.0000000000000000e+00 1.2000000000000000e+01 0.0000000000000000e+00
0.0000000000000000e+00 1.2000000000000000e+01 0.0000000000000000e+00
0.0000000000000000e+00 1.2000000000000000e+01 0.0000000000000000e+00
ITEM: ATOMS id type x y z
1 1 7.00433 6.40518 6.0683
2 2 5.13304 5.25078 5.23584
3 2 4.66881 6.02323 6.59094
4 2 5.61843 4.66262 6.7644
5 2 7.87505 5.63494 5.6501
6 2 7.27615 6.65209 7.25554
7 2 6.78217 7.40038 5.34072
8 3 5.4287 5.51336 6.16523
ITEM: TIMESTEP
1500
ITEM: NUMBER OF ATOMS
8
ITEM: BOX BOUNDS xy xz yz pp pp pp
0.0000000000000000e+00 1.2000000000000000e+01 0.0000000000000000e+00
0.0000000000000000e+00 1.2000000000000000e+01 0.0000000000000000e+00
0.0000000000000000e+00 1.2000000000000000e+01 0.0000000000000000e+00
ITEM: ATOMS id type x y z
1 1 6.83369 6.44182 5.83725
2 2 4.90573 5.3034 5.62285
3 2 5.13443 5.94481 7.10547
4 2 5.94104 4.55391 6.7117
5 2 7.30253 5.78418 4.99457
6 2 7.53623 6.69805 6.75241
7 2 6.25489 7.43895 5.4241
8 3 5.58025 5.47801 6.35965
ITEM: TIMESTEP
1600
ITEM: NUMBER OF ATOMS
8
ITEM: BOX BOUNDS xy xz yz pp pp pp
0.0000000000000000e+00 1.2000000000000000e+01 0.0000000000000000e+00
0.0000000000000000e+00 1.2000000000000000e+01 0.0000000000000000e+00
0.0000000000000000e+00 1.2000000000000000e+01 0.0000000000000000e+00
ITEM: ATOMS id type x y z
1 1 6.61183 6.42637 5.65007
2 2 4.91549 5.34784 5.94562
3 2 5.52259 5.89475 7.38275
4 2 6.2016 4.53389 6.67817
5 2 6.57841 5.95761 4.44238
6 2 7.69769 6.54167 6.3221
7 2 5.98123 7.48057 5.69768
8 3 5.76411 5.48757 6.51421
ITEM: TIMESTEP
1700
ITEM: NUMBER OF ATOMS
8
ITEM: BOX BOUNDS xy xz yz pp pp pp
0.0000000000000000e+00 1.2000000000000000e+01 0.0000000000000000e+00
0.0000000000000000e+00 1.2000000000000000e+01 0.0000000000000000e+00
0.0000000000000000e+00 1.2000000000000000e+01 0.0000000000000000e+00
ITEM: ATOMS id type x y z
1 1 6.43962 6.48189 5.50232
2 2 4.85226 5.51384 6.63094
3 2 6.18635 5.76477 7.54707
4 2 6.19979 4.41961 6.52251
5 2 6.16792 5.96561 4.45203
6 2 7.61916 6.6254 5.48345
7 2 5.81696 7.46669 5.68164
8 3 5.90085 5.44477 6.63898
ITEM: TIMESTEP
1800
ITEM: NUMBER OF ATOMS
8
ITEM: BOX BOUNDS xy xz yz pp pp pp
0.0000000000000000e+00 1.2000000000000000e+01 0.0000000000000000e+00
0.0000000000000000e+00 1.2000000000000000e+01 0.0000000000000000e+00
0.0000000000000000e+00 1.2000000000000000e+01 0.0000000000000000e+00
ITEM: ATOMS id type x y z
1 1 6.20705 6.48001 5.34246
2 2 5.05249 5.41426 6.95535
3 2 6.58024 5.77901 7.55827
4 2 6.38435 4.42834 6.58247
5 2 5.41043 6.02675 4.53327
6 2 7.39447 6.40092 5.03044
7 2 5.89349 7.58977 5.91074
8 3 6.08933 5.45457 6.74424
ITEM: TIMESTEP
1900
ITEM: NUMBER OF ATOMS
8
ITEM: BOX BOUNDS xy xz yz pp pp pp
0.0000000000000000e+00 1.2000000000000000e+01 0.0000000000000000e+00
0.0000000000000000e+00 1.2000000000000000e+01 0.0000000000000000e+00
0.0000000000000000e+00 1.2000000000000000e+01 0.0000000000000000e+00
ITEM: ATOMS id type x y z
1 1 6.0038 6.45016 5.31042
2 2 5.43897 5.59101 7.42349
3 2 7.04466 5.81237 7.2567
4 2 6.39534 4.43349 6.5947
5 2 4.93894 5.93485 4.95522
6 2 7.08203 6.3528 4.71919
7 2 5.79536 7.52906 5.79812
8 3 6.24757 5.47656 6.75632
ITEM: TIMESTEP
2000
ITEM: NUMBER OF ATOMS
8
ITEM: BOX BOUNDS xy xz yz pp pp pp
0.0000000000000000e+00 1.2000000000000000e+01 0.0000000000000000e+00
0.0000000000000000e+00 1.2000000000000000e+01 0.0000000000000000e+00
0.0000000000000000e+00 1.2000000000000000e+01 0.0000000000000000e+00
ITEM: ATOMS id type x y z
1 1 5.81105 6.37584 5.36771
2 2 5.76612 5.72404 7.545
3 2 7.31582 5.77676 7.0214
4 2 6.40833 4.48568 6.64828
5 2 4.72543 5.95087 5.05377
6 2 6.5804 6.19226 4.45978
7 2 5.81074 7.52664 5.70706
8 3 6.40258 5.5337 6.73442
ITEM: TIMESTEP
2100
ITEM: NUMBER OF ATOMS
8
ITEM: BOX BOUNDS xy xz yz pp pp pp
0.0000000000000000e+00 1.2000000000000000e+01 0.0000000000000000e+00
0.0000000000000000e+00 1.2000000000000000e+01 0.0000000000000000e+00
0.0000000000000000e+00 1.2000000000000000e+01 0.0000000000000000e+00
ITEM: ATOMS id type x y z
1 1 5.66542 6.2994 5.43614
2 2 6.12998 5.79998 7.62609
3 2 7.43764 5.9226 6.73027
4 2 6.60643 4.55345 6.6321
5 2 4.49748 5.9112 5.59908
6 2 6.0432 5.84863 4.3456
7 2 5.85435 7.58067 5.62087
8 3 6.51762 5.59551 6.67315
ITEM: TIMESTEP
2200
ITEM: NUMBER OF ATOMS
8
ITEM: BOX BOUNDS xy xz yz pp pp pp
0.0000000000000000e+00 1.2000000000000000e+01 0.0000000000000000e+00
0.0000000000000000e+00 1.2000000000000000e+01 0.0000000000000000e+00
0.0000000000000000e+00 1.2000000000000000e+01 0.0000000000000000e+00
ITEM: ATOMS id type x y z
1 1 5.49231 6.17971 5.60385
2 2 6.67973 6.25716 7.42688
3 2 7.52868 5.77172 6.13623
4 2 6.57937 4.69522 6.86648
5 2 4.49099 5.85338 6.18878
6 2 5.84913 5.63289 4.59403
7 2 5.63628 7.30696 5.60569
8 3 6.63723 5.69492 6.52491
ITEM: TIMESTEP
2300
ITEM: NUMBER OF ATOMS
8
ITEM: BOX BOUNDS xy xz yz pp pp pp
0.0000000000000000e+00 1.2000000000000000e+01 0.0000000000000000e+00
0.0000000000000000e+00 1.2000000000000000e+01 0.0000000000000000e+00
0.0000000000000000e+00 1.2000000000000000e+01 0.0000000000000000e+00
ITEM: ATOMS id type x y z
1 1 5.28575 6.06392 5.76667
2 2 7.10794 6.39364 7.26231
3 2 7.48808 5.91768 5.69719
4 2 6.91613 4.76158 6.74543
5 2 4.45174 6.14509 6.71283
6 2 4.98715 5.20579 4.89246
7 2 5.31195 7.17612 5.13809
8 3 6.83237 5.77835 6.42572
ITEM: TIMESTEP
2400
ITEM: NUMBER OF ATOMS
8
ITEM: BOX BOUNDS xy xz yz pp pp pp
0.0000000000000000e+00 1.2000000000000000e+01 0.0000000000000000e+00
0.0000000000000000e+00 1.2000000000000000e+01 0.0000000000000000e+00
0.0000000000000000e+00 1.2000000000000000e+01 0.0000000000000000e+00
ITEM: ATOMS id type x y z
1 1 5.14263 5.97721 6.00081
2 2 7.31785 6.78418 6.62915
3 2 7.34928 5.69664 5.33717
4 2 7.13875 5.04218 6.88588
5 2 4.62827 6.04159 7.06283
6 2 4.87323 4.92446 5.49057
7 2 4.95434 6.92044 5.21149
8 3 6.94286 5.85884 6.23304
ITEM: TIMESTEP
2500
ITEM: NUMBER OF ATOMS
8
ITEM: BOX BOUNDS xy xz yz pp pp pp
0.0000000000000000e+00 1.2000000000000000e+01 0.0000000000000000e+00
0.0000000000000000e+00 1.2000000000000000e+01 0.0000000000000000e+00
0.0000000000000000e+00 1.2000000000000000e+01 0.0000000000000000e+00
ITEM: ATOMS id type x y z
1 1 5.26338 5.88479 6.16932
2 2 7.2205 6.91685 6.112
3 2 7.05793 5.48079 5.22431
4 2 7.21496 5.36987 6.88381
5 2 5.08155 6.18262 7.35847
6 2 5.04955 4.69714 5.91455
7 2 4.93368 6.75723 5.43922
8 3 6.82854 5.93049 6.08053
ITEM: TIMESTEP
2600
ITEM: NUMBER OF ATOMS
8
ITEM: BOX BOUNDS xy xz yz pp pp pp
0.0000000000000000e+00 1.2000000000000000e+01 0.0000000000000000e+00
0.0000000000000000e+00 1.2000000000000000e+01 0.0000000000000000e+00
0.0000000000000000e+00 1.2000000000000000e+01 0.0000000000000000e+00
ITEM: ATOMS id type x y z
1 1 5.3075 5.8443 6.34035
2 2 7.1646 6.9532 6.06728
3 2 6.96815 5.68392 5.01286
4 2 7.34902 5.33957 6.58197
5 2 5.07178 6.53796 7.35566
6 2 5.1253 4.61261 6.47043
7 2 4.59389 6.19515 5.38719
8 3 6.81489 5.96759 5.95266
ITEM: TIMESTEP
2700
ITEM: NUMBER OF ATOMS
8
ITEM: BOX BOUNDS xy xz yz pp pp pp
0.0000000000000000e+00 1.2000000000000000e+01 0.0000000000000000e+00
0.0000000000000000e+00 1.2000000000000000e+01 0.0000000000000000e+00
0.0000000000000000e+00 1.2000000000000000e+01 0.0000000000000000e+00
ITEM: ATOMS id type x y z
1 1 5.35017 5.79971 6.4507
2 2 6.98706 6.96413 5.50581
3 2 6.92197 5.36056 5.11204
4 2 7.46945 5.78646 6.59172
5 2 5.2944 6.36013 7.49853
6 2 5.16423 4.62987 6.6025
7 2 4.5114 6.22425 5.66044
8 3 6.77657 6.00178 5.8607
ITEM: TIMESTEP
2800
ITEM: NUMBER OF ATOMS
8
ITEM: BOX BOUNDS xy xz yz pp pp pp
0.0000000000000000e+00 1.2000000000000000e+01 0.0000000000000000e+00
0.0000000000000000e+00 1.2000000000000000e+01 0.0000000000000000e+00
0.0000000000000000e+00 1.2000000000000000e+01 0.0000000000000000e+00
ITEM: ATOMS id type x y z
1 1 5.38079 5.77116 6.55186
2 2 6.85394 6.99505 5.39789
3 2 6.83 5.40641 4.9868
4 2 7.53753 5.8382 6.38154
5 2 5.44208 6.56742 7.5315
6 2 5.59176 4.60535 7.00829
7 2 4.50551 6.00688 5.72975
8 3 6.72349 6.01709 5.77804
ITEM: TIMESTEP
2900
ITEM: NUMBER OF ATOMS
8
ITEM: BOX BOUNDS xy xz yz pp pp pp
0.0000000000000000e+00 1.2000000000000000e+01 0.0000000000000000e+00
0.0000000000000000e+00 1.2000000000000000e+01 0.0000000000000000e+00
0.0000000000000000e+00 1.2000000000000000e+01 0.0000000000000000e+00
ITEM: ATOMS id type x y z
1 1 5.35953 5.71414 6.8242
2 2 6.74913 7.02404 5.11681
3 2 6.77893 5.42608 4.79632
4 2 7.68029 5.97782 6.01563
5 2 5.34715 6.75149 7.43237
6 2 5.81867 4.71612 7.31905
7 2 4.41921 5.53529 6.11531
8 3 6.73756 6.06026 5.58511
ITEM: TIMESTEP
3000
ITEM: NUMBER OF ATOMS
8
ITEM: BOX BOUNDS xy xz yz pp pp pp
0.0000000000000000e+00 1.2000000000000000e+01 0.0000000000000000e+00
0.0000000000000000e+00 1.2000000000000000e+01 0.0000000000000000e+00
0.0000000000000000e+00 1.2000000000000000e+01 0.0000000000000000e+00
ITEM: ATOMS id type x y z
1 1 5.63926 5.72714 6.90289
2 2 6.0936 6.74704 4.79194
3 2 6.77204 5.23138 4.94909
4 2 7.47761 6.49452 5.68452
5 2 5.59308 6.77464 7.51435
6 2 6.16217 4.7921 7.47911
7 2 4.4754 5.28096 6.60399
8 3 6.53745 6.05809 5.50816
ITEM: TIMESTEP
3100
ITEM: NUMBER OF ATOMS
8
ITEM: BOX BOUNDS xy xz yz pp pp pp
0.0000000000000000e+00 1.2000000000000000e+01 0.0000000000000000e+00
0.0000000000000000e+00 1.2000000000000000e+01 0.0000000000000000e+00
0.0000000000000000e+00 1.2000000000000000e+01 0.0000000000000000e+00
ITEM: ATOMS id type x y z
1 1 5.85835 5.7318 6.92856
2 2 5.4912 6.26453 4.88662
3 2 6.85188 5.26098 5.04557
4 2 7.01712 6.86069 5.46779
5 2 5.80359 6.83486 7.48834
6 2 6.769 5.1115 7.50609
7 2 4.7468 5.27052 6.77803
8 3 6.36089 6.03433 5.47768
ITEM: TIMESTEP
3200
ITEM: NUMBER OF ATOMS
8
ITEM: BOX BOUNDS xy xz yz pp pp pp
0.0000000000000000e+00 1.2000000000000000e+01 0.0000000000000000e+00
0.0000000000000000e+00 1.2000000000000000e+01 0.0000000000000000e+00
0.0000000000000000e+00 1.2000000000000000e+01 0.0000000000000000e+00
ITEM: ATOMS id type x y z
1 1 6.05256 5.75314 7.14854
2 2 5.27691 6.4599 5.07767
3 2 6.33459 5.15774 4.83719
4 2 6.98528 6.68203 5.15775
5 2 5.4113 6.74649 7.42131
6 2 7.21731 5.7627 7.5283
7 2 5.50429 4.6935 7.19418
8 3 6.2075 6.02506 5.30484
ITEM: TIMESTEP
3300
ITEM: NUMBER OF ATOMS
8
ITEM: BOX BOUNDS xy xz yz pp pp pp
0.0000000000000000e+00 1.2000000000000000e+01 0.0000000000000000e+00
0.0000000000000000e+00 1.2000000000000000e+01 0.0000000000000000e+00
0.0000000000000000e+00 1.2000000000000000e+01 0.0000000000000000e+00
ITEM: ATOMS id type x y z
1 1 6.23052 5.82241 7.04063
2 2 5.08862 6.31849 5.23467
3 2 6.23851 5.1167 4.90966
4 2 6.70576 6.71497 5.06917
5 2 5.36322 6.57586 7.48418
6 2 7.38273 6.04359 7.3738
7 2 6.02431 4.59028 7.34956
8 3 6.06497 5.9818 5.37347
ITEM: TIMESTEP
3400
ITEM: NUMBER OF ATOMS
8
ITEM: BOX BOUNDS xy xz yz pp pp pp
0.0000000000000000e+00 1.2000000000000000e+01 0.0000000000000000e+00
0.0000000000000000e+00 1.2000000000000000e+01 0.0000000000000000e+00
0.0000000000000000e+00 1.2000000000000000e+01 0.0000000000000000e+00
ITEM: ATOMS id type x y z
1 1 6.35401 5.845 7.03385
2 2 5.0447 5.48492 5.27097
3 2 6.63013 5.49986 4.80684
4 2 5.89409 6.93977 5.11732
5 2 5.83555 6.77478 7.57028
6 2 7.5474 5.98701 7.03404
7 2 5.85954 4.81585 7.35204
8 3 5.96911 5.95421 5.39796
ITEM: TIMESTEP
3500
ITEM: NUMBER OF ATOMS
8
ITEM: BOX BOUNDS xy xz yz pp pp pp
0.0000000000000000e+00 1.2000000000000000e+01 0.0000000000000000e+00
0.0000000000000000e+00 1.2000000000000000e+01 0.0000000000000000e+00
0.0000000000000000e+00 1.2000000000000000e+01 0.0000000000000000e+00
ITEM: ATOMS id type x y z
1 1 6.62613 5.91571 7.1335
2 2 4.9169 5.25944 5.27969
3 2 6.40396 5.56854 4.64616
4 2 5.42586 6.82919 5.00676
5 2 5.81801 6.73438 7.64604
6 2 7.79619 6.3529 6.88399
7 2 6.46158 4.73004 7.43089
8 3 5.7584 5.90164 5.33951
ITEM: TIMESTEP
3600
ITEM: NUMBER OF ATOMS
8
ITEM: BOX BOUNDS xy xz yz pp pp pp
0.0000000000000000e+00 1.2000000000000000e+01 0.0000000000000000e+00
0.0000000000000000e+00 1.2000000000000000e+01 0.0000000000000000e+00
0.0000000000000000e+00 1.2000000000000000e+01 0.0000000000000000e+00
ITEM: ATOMS id type x y z
1 1 6.73322 6.04141 6.86698
2 2 4.80988 5.22887 5.84301
3 2 6.03909 5.32625 4.73442
4 2 5.18395 6.67118 5.15675
5 2 6.13699 6.26422 7.87346
6 2 7.50625 6.80704 6.46364
7 2 7.39727 4.98963 6.86965
8 3 5.65786 5.81805 5.54173
ITEM: TIMESTEP
3700
ITEM: NUMBER OF ATOMS
8
ITEM: BOX BOUNDS xy xz yz pp pp pp
0.0000000000000000e+00 1.2000000000000000e+01 0.0000000000000000e+00
0.0000000000000000e+00 1.2000000000000000e+01 0.0000000000000000e+00
0.0000000000000000e+00 1.2000000000000000e+01 0.0000000000000000e+00
ITEM: ATOMS id type x y z
1 1 6.7944 6.08151 6.62174
2 2 4.96857 4.97532 6.04002
3 2 5.98598 5.43805 4.84345
4 2 4.99473 6.58043 5.4429
5 2 6.33086 6.15427 7.74292
6 2 7.15551 7.22259 6.28918
7 2 7.59116 5.15723 6.5103
8 3 5.614 5.76992 5.73606
ITEM: TIMESTEP
3800
ITEM: NUMBER OF ATOMS
8
ITEM: BOX BOUNDS xy xz yz pp pp pp
0.0000000000000000e+00 1.2000000000000000e+01 0.0000000000000000e+00
0.0000000000000000e+00 1.2000000000000000e+01 0.0000000000000000e+00
0.0000000000000000e+00 1.2000000000000000e+01 0.0000000000000000e+00
ITEM: ATOMS id type x y z
1 1 7.00677 6.21704 6.60353
2 2 5.24904 4.63027 5.82512
3 2 5.53424 5.92081 4.78189
4 2 4.64697 6.1681 6.18703
5 2 6.69853 6.47874 7.78104
6 2 7.25814 7.22549 5.88601
7 2 7.65933 5.21954 6.459
8 3 5.44877 5.65715 5.74644
ITEM: TIMESTEP
3900
ITEM: NUMBER OF ATOMS
8
ITEM: BOX BOUNDS xy xz yz pp pp pp
0.0000000000000000e+00 1.2000000000000000e+01 0.0000000000000000e+00
0.0000000000000000e+00 1.2000000000000000e+01 0.0000000000000000e+00
0.0000000000000000e+00 1.2000000000000000e+01 0.0000000000000000e+00
ITEM: ATOMS id type x y z
1 1 7.0264 6.27014 6.41552
2 2 5.38638 4.5713 5.93399
3 2 5.33664 5.90281 4.95227
4 2 4.65119 6.01597 6.45811
5 2 6.90048 6.36296 7.59991
6 2 7.09356 7.28829 5.8364
7 2 7.93697 5.57571 6.03764
8 3 5.41514 5.61089 5.89875
ITEM: TIMESTEP
4000
ITEM: NUMBER OF ATOMS
8
ITEM: BOX BOUNDS xy xz yz pp pp pp
0.0000000000000000e+00 1.2000000000000000e+01 0.0000000000000000e+00
0.0000000000000000e+00 1.2000000000000000e+01 0.0000000000000000e+00
0.0000000000000000e+00 1.2000000000000000e+01 0.0000000000000000e+00
ITEM: ATOMS id type x y z
1 1 6.85603 6.28465 6.21073
2 2 5.49376 4.72277 6.61272
3 2 5.30427 5.40463 5.11784
4 2 4.84682 6.26728 6.39387
5 2 7.44231 5.89485 7.24983
6 2 6.67281 7.52312 6.32918
7 2 7.46969 5.90224 5.12906
8 3 5.55196 5.59986 6.05571
ITEM: TIMESTEP
4100
ITEM: NUMBER OF ATOMS
8
ITEM: BOX BOUNDS xy xz yz pp pp pp
0.0000000000000000e+00 1.2000000000000000e+01 0.0000000000000000e+00
0.0000000000000000e+00 1.2000000000000000e+01 0.0000000000000000e+00
0.0000000000000000e+00 1.2000000000000000e+01 0.0000000000000000e+00
ITEM: ATOMS id type x y z
1 1 7.04678 6.47131 5.95114
2 2 5.67462 4.55582 6.6883
3 2 4.92684 5.25225 5.41395
4 2 4.78768 5.87307 6.9636
5 2 7.79689 5.86675 6.65826
6 2 6.56527 7.50367 6.41733
7 2 7.25864 6.40809 4.80877
8 3 5.42051 5.4741 6.24756
ITEM: TIMESTEP
4200
ITEM: NUMBER OF ATOMS
8
ITEM: BOX BOUNDS xy xz yz pp pp pp
0.0000000000000000e+00 1.2000000000000000e+01 0.0000000000000000e+00
0.0000000000000000e+00 1.2000000000000000e+01 0.0000000000000000e+00
0.0000000000000000e+00 1.2000000000000000e+01 0.0000000000000000e+00
ITEM: ATOMS id type x y z
1 1 6.89805 6.55648 5.72463
2 2 5.70496 4.34784 6.36167
3 2 4.592 5.5324 6.06655
4 2 5.41465 5.62824 7.46598
5 2 7.89262 6.06724 6.25925
6 2 6.69333 7.69488 6.00792
7 2 6.79978 6.38855 4.50065
8 3 5.529 5.39414 6.44288
ITEM: TIMESTEP
4300
ITEM: NUMBER OF ATOMS
8
ITEM: BOX BOUNDS xy xz yz pp pp pp
0.0000000000000000e+00 1.2000000000000000e+01 0.0000000000000000e+00
0.0000000000000000e+00 1.2000000000000000e+01 0.0000000000000000e+00
0.0000000000000000e+00 1.2000000000000000e+01 0.0000000000000000e+00
ITEM: ATOMS id type x y z
1 1 6.65605 6.45303 5.63671
2 2 5.62514 4.5542 5.99741
3 2 4.777 5.81766 6.72895
4 2 6.17789 5.20204 7.43264
5 2 7.81532 6.26412 6.04082
6 2 6.23091 7.54003 5.98971
7 2 6.44108 6.13358 4.43175
8 3 5.71783 5.48448 6.51362
ITEM: TIMESTEP
4400
ITEM: NUMBER OF ATOMS
8
ITEM: BOX BOUNDS xy xz yz pp pp pp
0.0000000000000000e+00 1.2000000000000000e+01 0.0000000000000000e+00
0.0000000000000000e+00 1.2000000000000000e+01 0.0000000000000000e+00
0.0000000000000000e+00 1.2000000000000000e+01 0.0000000000000000e+00
ITEM: ATOMS id type x y z
1 1 6.52322 6.47257 5.55674
2 2 5.84227 4.47814 6.20632
3 2 4.85341 5.72178 6.67793
4 2 6.31237 5.46684 7.53384
5 2 7.58798 5.96227 5.3918
6 2 6.51187 7.59494 6.06502
7 2 5.87991 6.42168 4.5716
8 3 5.82598 5.45984 6.5878
ITEM: TIMESTEP
4500
ITEM: NUMBER OF ATOMS
8
ITEM: BOX BOUNDS xy xz yz pp pp pp
0.0000000000000000e+00 1.2000000000000000e+01 0.0000000000000000e+00
0.0000000000000000e+00 1.2000000000000000e+01 0.0000000000000000e+00
0.0000000000000000e+00 1.2000000000000000e+01 0.0000000000000000e+00
ITEM: ATOMS id type x y z
1 1 6.44735 6.56783 5.33958
2 2 5.83554 4.41636 6.36533
3 2 5.00422 5.66683 7.12059
4 2 6.55854 5.43947 7.54434
5 2 7.50082 6.1076 4.85754
6 2 6.63679 7.65103 5.93915
7 2 5.45597 6.56768 4.59277
8 3 5.88421 5.37183 6.75723
ITEM: TIMESTEP
4600
ITEM: NUMBER OF ATOMS
8
ITEM: BOX BOUNDS xy xz yz pp pp pp
0.0000000000000000e+00 1.2000000000000000e+01 0.0000000000000000e+00
0.0000000000000000e+00 1.2000000000000000e+01 0.0000000000000000e+00
0.0000000000000000e+00 1.2000000000000000e+01 0.0000000000000000e+00
ITEM: ATOMS id type x y z
1 1 6.27162 6.56225 5.28281
2 2 5.69153 4.45431 6.52741
3 2 5.32922 5.83706 7.34326
4 2 6.91014 5.26359 7.29906
5 2 7.21473 6.03523 4.76086
6 2 6.51991 7.56753 5.83545
7 2 5.18206 6.43793 4.75152
8 3 6.03008 5.39422 6.79404
ITEM: TIMESTEP
4700
ITEM: NUMBER OF ATOMS
8
ITEM: BOX BOUNDS xy xz yz pp pp pp
0.0000000000000000e+00 1.2000000000000000e+01 0.0000000000000000e+00
0.0000000000000000e+00 1.2000000000000000e+01 0.0000000000000000e+00
0.0000000000000000e+00 1.2000000000000000e+01 0.0000000000000000e+00
ITEM: ATOMS id type x y z
1 1 6.13445 6.40175 5.43001
2 2 5.68128 4.58489 6.537
3 2 5.67934 5.94791 7.45967
4 2 7.11375 5.34964 7.02328
5 2 6.84875 5.86983 4.60443
6 2 6.4279 7.55088 5.80707
7 2 4.95847 6.39375 5.07386
8 3 6.14576 5.51081 6.68136
ITEM: TIMESTEP
4800
ITEM: NUMBER OF ATOMS
8
ITEM: BOX BOUNDS xy xz yz pp pp pp
0.0000000000000000e+00 1.2000000000000000e+01 0.0000000000000000e+00
0.0000000000000000e+00 1.2000000000000000e+01 0.0000000000000000e+00
0.0000000000000000e+00 1.2000000000000000e+01 0.0000000000000000e+00
ITEM: ATOMS id type x y z
1 1 5.95309 6.42131 5.3328
2 2 6.14116 4.47613 6.57447
3 2 5.69306 5.71493 7.56831
4 2 7.26831 5.57702 7.11487
5 2 6.21466 5.73238 4.33451
6 2 6.81993 7.33867 5.4229
7 2 4.80857 6.82658 5.32076
8 3 6.2688 5.49794 6.76846
ITEM: TIMESTEP
4900
ITEM: NUMBER OF ATOMS
8
ITEM: BOX BOUNDS xy xz yz pp pp pp
0.0000000000000000e+00 1.2000000000000000e+01 0.0000000000000000e+00
0.0000000000000000e+00 1.2000000000000000e+01 0.0000000000000000e+00
0.0000000000000000e+00 1.2000000000000000e+01 0.0000000000000000e+00
ITEM: ATOMS id type x y z
1 1 5.68461 6.49919 5.1718
2 2 6.32422 4.42108 6.86779
3 2 6.16134 5.77264 7.77928
4 2 7.5257 5.59393 6.754
5 2 5.64877 5.4876 4.53061
6 2 6.5925 7.2122 4.9706
7 2 4.67118 6.81132 5.70053
8 3 6.47748 5.46408 6.87358
ITEM: TIMESTEP
5000
ITEM: NUMBER OF ATOMS
8
ITEM: BOX BOUNDS xy xz yz pp pp pp
0.0000000000000000e+00 1.2000000000000000e+01 0.0000000000000000e+00
0.0000000000000000e+00 1.2000000000000000e+01 0.0000000000000000e+00
0.0000000000000000e+00 1.2000000000000000e+01 0.0000000000000000e+00
ITEM: ATOMS id type x y z
1 1 5.57561 6.27014 5.43565
2 2 6.05206 4.77792 6.99783
3 2 6.85288 6.23316 7.43925
4 2 7.4982 5.32634 6.23144
5 2 5.40923 5.29338 4.67752
6 2 6.24547 7.23252 5.02437
7 2 4.52709 6.7032 6.01173
8 3 6.58577 5.62165 6.68581
ITEM: TIMESTEP
5100
ITEM: NUMBER OF ATOMS
8
ITEM: BOX BOUNDS xy xz yz pp pp pp
0.0000000000000000e+00 1.2000000000000000e+01 0.0000000000000000e+00
0.0000000000000000e+00 1.2000000000000000e+01 0.0000000000000000e+00
0.0000000000000000e+00 1.2000000000000000e+01 0.0000000000000000e+00
ITEM: ATOMS id type x y z
1 1 5.52673 6.2 5.57633
2 2 6.17891 5.45184 7.47056
3 2 7.32104 6.38736 6.78329
4 2 7.08506 4.78227 6.22023
5 2 5.46057 5.40368 4.67539
6 2 5.81208 7.30947 5.1052
7 2 4.48335 6.26052 6.18459
8 3 6.6409 5.67371 6.5732
ITEM: TIMESTEP
5200
ITEM: NUMBER OF ATOMS
8
ITEM: BOX BOUNDS xy xz yz pp pp pp
0.0000000000000000e+00 1.2000000000000000e+01 0.0000000000000000e+00
0.0000000000000000e+00 1.2000000000000000e+01 0.0000000000000000e+00
0.0000000000000000e+00 1.2000000000000000e+01 0.0000000000000000e+00
ITEM: ATOMS id type x y z
1 1 5.25899 6.20334 5.52539
2 2 6.72202 6.02865 7.55521
3 2 7.69229 6.04171 6.23158
4 2 6.8917 4.6354 6.618
5 2 5.34812 5.47164 4.5546
6 2 5.57604 7.35931 5.37128
7 2 4.42125 5.90366 6.3244
8 3 6.82527 5.68219 6.59708
ITEM: TIMESTEP
5300
ITEM: NUMBER OF ATOMS
8
ITEM: BOX BOUNDS xy xz yz pp pp pp
0.0000000000000000e+00 1.2000000000000000e+01 0.0000000000000000e+00
0.0000000000000000e+00 1.2000000000000000e+01 0.0000000000000000e+00
0.0000000000000000e+00 1.2000000000000000e+01 0.0000000000000000e+00
ITEM: ATOMS id type x y z
1 1 5.18937 6.13047 5.65814
2 2 7.07639 6.47943 7.16365
3 2 7.63406 5.68999 5.81967
4 2 6.95475 4.84831 7.0418
5 2 5.2615 5.44988 4.61597
6 2 5.2113 7.34435 5.59741
7 2 4.36377 5.70384 6.51628
8 3 6.88966 5.73301 6.48756
ITEM: TIMESTEP
5400
ITEM: NUMBER OF ATOMS
8
ITEM: BOX BOUNDS xy xz yz pp pp pp
0.0000000000000000e+00 1.2000000000000000e+01 0.0000000000000000e+00
0.0000000000000000e+00 1.2000000000000000e+01 0.0000000000000000e+00
0.0000000000000000e+00 1.2000000000000000e+01 0.0000000000000000e+00
ITEM: ATOMS id type x y z
1 1 5.38535 5.9989 5.89652
2 2 7.1646 6.63401 6.78032
3 2 7.37101 5.72887 5.54543
4 2 6.94191 5.0006 6.95355
5 2 5.14751 5.31896 4.96815
6 2 5.26129 7.12577 5.51306
7 2 4.63591 5.82542 6.81977
8 3 6.73702 5.8261 6.31612
ITEM: TIMESTEP
5500
ITEM: NUMBER OF ATOMS
8
ITEM: BOX BOUNDS xy xz yz pp pp pp
0.0000000000000000e+00 1.2000000000000000e+01 0.0000000000000000e+00
0.0000000000000000e+00 1.2000000000000000e+01 0.0000000000000000e+00
0.0000000000000000e+00 1.2000000000000000e+01 0.0000000000000000e+00
ITEM: ATOMS id type x y z
1 1 5.00933 5.96543 6.0034
2 2 7.35312 6.35021 7.07266
3 2 7.50031 6.19142 5.39608
4 2 7.2526 4.83353 6.32276
5 2 4.79715 4.74486 5.92084
6 2 5.08531 6.6376 4.91344
7 2 4.64774 6.44508 7.0645
8 3 7.01894 5.8827 6.22582
ITEM: TIMESTEP
5600
ITEM: NUMBER OF ATOMS
8
ITEM: BOX BOUNDS xy xz yz pp pp pp
0.0000000000000000e+00 1.2000000000000000e+01 0.0000000000000000e+00