LAMMPS (2 Aug 2023 - Update 1)
OMP_NUM_THREADS environment is not set. Defaulting to 1 thread. (src/comm.cpp:98)
  using 1 OpenMP thread(s) per MPI task
Loaded 1 plugins from /home/rverma7/.conda/envs/deepmd/lib/deepmd_lmp
#13 Butadiene
units           metal
boundary        p p p
atom_style      atomic

neighbor        2.0 bin
neigh_modify    delay 0 every 1 check yes

read_data       conf.lmp
Reading data file ...
  triclinic box = (0 0 0) to (12 12 12) with tilt (0 0 0)
  1 by 1 by 1 MPI processor grid
  reading atoms ...
  8 atoms
  read_data CPU = 0.000 seconds
mass            1 10.8
mass            2 1.0
mass            3 14.0

variable        sysvol          equal vol
variable        sysmass         equal mass(all)/6.0221367e+23
variable        sysdensity      equal v_sysmass/v_sysvol/1.0e-24
variable	out_freq 	equal 100

pair_style      deepmd frozen_model_1.pb frozen_model_2.pb out_file md.out out_freq 10 atomic relative 1.0
Summary of lammps deepmd module ...
  >>> Info of deepmd-kit:
  installed to:       /home/rverma7/.conda/envs/deepmd
  source:             v2.2.10
  source branch:      HEAD
  source commit:      f8a0b3128
  source commit at:   2024-04-06 14:46:23 -0400
  support model ver.: 1.1 
  build variant:      cuda
  build with tf inc:  /home/rverma7/.conda/envs/deepmd/include;/home/rverma7/.conda/envs/deepmd/include
  build with tf lib:  /home/rverma7/.conda/envs/deepmd/lib/libtensorflow_cc.so
  set tf intra_op_parallelism_threads: 0
  set tf inter_op_parallelism_threads: 0
  >>> Info of lammps module:
  use deepmd-kit at:  /home/rverma7/.conda/envs/deepmdpair_coeff	* *

#
velocity        all create 300.0 2345678 rot no dist gaussian
fix             1 all nvt temp 300.0 300.0 0.05
fix             2 all plumed plumedfile plumed.dat outfile PLUMED.log

timestep        0.0005
thermo_style    custom step pe ke etotal v_sysdensity temp press vol
thermo          10

dump            10 all custom 100 traj.dump id type x y z
dump		101 all xyz 20 traj.xyz
dump_modify	101 element B H N

fix		extra all print 20 "$(step), $(ke), $(pe), $(etotal), $(temp), $(press), $(vol)" file logfile screen no

restart	        100000 dump.restart

run             150000

CITE-CITE-CITE-CITE-CITE-CITE-CITE-CITE-CITE-CITE-CITE-CITE-CITE

Your simulation uses code contributions which should be cited:

- USER-DEEPMD package:

@article{Wang_ComputPhysCommun_2018_v228_p178,
  author = {Wang, Han and Zhang, Linfeng and Han, Jiequn and E, Weinan},
  doi = {10.1016/j.cpc.2018.03.016},
  url = {https://doi.org/10.1016/j.cpc.2018.03.016},
  year = 2018,
  month = {jul},
  publisher = {Elsevier {BV}},
  volume = 228,
  journal = {Comput. Phys. Commun.},
  title = {{DeePMD-kit: A deep learning package for many-body potential energy representation and molecular dynamics}},
  pages = {178--184}
}
@misc{Zeng_JChemPhys_2023_v159_p054801,
  title  = {{DeePMD-kit v2: A software package for deep potential models}},
  author =   {Jinzhe Zeng and Duo Zhang and Denghui Lu and Pinghui Mo and Zeyu Li
         and Yixiao Chen and Mari{\'a}n Rynik and Li'ang Huang and Ziyao Li and 
         Shaochen Shi and Yingze Wang and Haotian Ye and Ping Tuo and Jiabin
         Yang and Ye Ding and Yifan Li and Davide Tisi and Qiyu Zeng and Han 
         Bao and Yu Xia and Jiameng Huang and Koki Muraoka and Yibo Wang and 
         Junhan Chang and Fengbo Yuan and Sigbj{\o}rn L{\o}land Bore and Chun
         Cai and Yinnian Lin and Bo Wang and Jiayan Xu and Jia-Xin Zhu and 
         Chenxing Luo and Yuzhi Zhang and Rhys E A Goodall and Wenshuo Liang
         and Anurag Kumar Singh and Sikai Yao and Jingchao Zhang and Renata
         Wentzcovitch and Jiequn Han and Jie Liu and Weile Jia and Darrin M
         York and Weinan E and Roberto Car and Linfeng Zhang and Han Wang},
  journal =  {J. Chem. Phys.},
  volume =   159,
  issue =    5,  
  year =    2023,
  pages  =   054801,
  doi =      {10.1063/5.0155600},
}

CITE-CITE-CITE-CITE-CITE-CITE-CITE-CITE-CITE-CITE-CITE-CITE-CITE

Generated 0 of 3 mixed pair_coeff terms from geometric mixing rule
Neighbor list info ...
  update: every = 1 steps, delay = 0 steps, check = yes
  max neighbors/atom: 2000, page size: 100000
  master list distance cutoff = 8
  ghost atom cutoff = 8
  binsize = 4, bins = 3 3 3
  1 neighbor lists, perpetual/occasional/extra = 1 0 0
  (1) pair deepmd, perpetual
      attributes: full, newton on
      pair build: full/bin/atomonly
      stencil: full/bin/3d
      bin: standard
Per MPI rank memory allocation (min/avg/max) = 3.063 | 3.063 | 3.063 Mbytes
   Step         PotEng         KinEng         TotEng      v_sysdensity       Temp          Press          Volume    
         0  -36.558493      0.2714463     -36.287046      0.029597591    300           -384.10475      1728         
        10  -36.510915      0.22479362    -36.286121      0.029597591    248.43987     -731.78115      1728         
        20  -36.455727      0.1710169     -36.28471       0.029597591    189.00633     -3.1149552      1728         
        30  -36.522074      0.23973436    -36.28234       0.029597591    264.95225      274.72239      1728         
        40  -36.542116      0.26364806    -36.278468      0.029597591    291.38145     -1402.3093      1728         
        50  -36.49105       0.21794944    -36.2731        0.029597591    240.87574      1645.2568      1728         
        60  -36.491195      0.22906282    -36.262133      0.029597591    253.15816     -992.60965      1728         
        70  -36.502015      0.24655179    -36.255463      0.029597591    272.48681      775.35403      1728         
        80  -36.47535       0.2282547     -36.247095      0.029597591    252.26503      411.81943      1728         
        90  -36.484458      0.24861888    -36.23584       0.029597591    274.77133      61.207433      1728         
       100  -36.508749      0.28559848    -36.223151      0.029597591    315.64086     -790.61228      1728         
       110  -36.472813      0.26897193    -36.203841      0.029597591    297.26534      1094.1401      1728         
       120  -36.415158      0.22600476    -36.189153      0.029597591    249.77841     -2155.5244      1728         
       130  -36.458909      0.28654526    -36.172363      0.029597591    316.68723      1064.5545      1728         
       140  -36.45381       0.3019794     -36.151831      0.029597591    333.7449      -610.40486      1728         
       150  -36.455114      0.32554846    -36.129566      0.029597591    359.79321     -187.30251      1728         
       160  -36.480947      0.38380585    -36.097141      0.029597591    424.17876      390.7475       1728         
       170  -36.435783      0.3624712     -36.073312      0.029597591    400.59989      683.98877      1728         
       180  -36.418198      0.365914      -36.052284      0.029597591    404.40484     -760.04133      1728         
       190  -36.475181      0.4466262     -36.028555      0.029597591    493.60723      1627.3221      1728         
       200  -36.408797      0.40132809    -36.007469      0.029597591    443.54418     -1009.8616      1728         
       210  -36.476142      0.4905039     -35.985638      0.029597591    542.10047     -116.4126       1728         
       220  -36.394755      0.4222662     -35.972489      0.029597591    466.68479      308.59544      1728         
       230  -36.309157      0.3437982     -35.965359      0.029597591    379.96266     -1439.2313      1728         
       240  -36.465468      0.50406897    -35.961399      0.029597591    557.09247     -136.32075      1728         
       250  -36.378079      0.41967119    -35.958408      0.029597591    463.81681      164.27843      1728         
       260  -36.363879      0.40788253    -35.955996      0.029597591    450.78808     -590.41791      1728         
       270  -36.509512      0.54947965    -35.960033      0.029597591    607.27994      276.25701      1728         
       280  -36.407837      0.43518711    -35.97265       0.029597591    480.96485      673.09799      1728         
       290  -36.301015      0.31841038    -35.982605      0.029597591    351.90427     -684.56118      1728         
       300  -36.467769      0.4670356     -36.000734      0.029597591    516.16352      1874.9182      1728         
       310  -36.38404       0.37142644    -36.012614      0.029597591    410.49714     -1166.9859      1728         
       320  -36.435383      0.40552017    -36.029863      0.029597591    448.17722      647.2037       1728         
       330  -36.39401       0.34522638    -36.048784      0.029597591    381.54107     -192.98987      1728         
       340  -36.361567      0.29307107    -36.068496      0.029597591    323.8995      -607.82379      1728         
       350  -36.374737      0.29539546    -36.079342      0.029597591    326.46839     -972.59183      1728         
       360  -36.438333      0.35069294    -36.08764       0.029597591    387.58266      952.84813      1728         
       370  -36.372952      0.27594937    -36.097003      0.029597591    304.97675     -1704.3654      1728         
       380  -36.456043      0.34867426    -36.107369      0.029597591    385.35164      1715.6141      1728         
       390  -36.45504       0.34216438    -36.112876      0.029597591    378.15698     -627.86716      1728         
       400  -36.388328      0.26801167    -36.120316      0.029597591    296.20407      362.21685      1728         
       410  -36.366383      0.24674743    -36.119636      0.029597591    272.70303      753.3111       1728         
       420  -36.504163      0.37786594    -36.126297      0.029597591    417.61401      192.00433      1728         
       430  -36.43292       0.30408416    -36.128836      0.029597591    336.07106     -895.71948      1728         
       440  -36.400711      0.26693339    -36.133778      0.029597591    295.01237      1592.5499      1728         
       450  -36.41662       0.27806814    -36.138551      0.029597591    307.31839     -1761.1033      1728         
       460  -36.448262      0.31009441    -36.138168      0.029597591    342.71353     -122.13583      1728         
       470  -36.409373      0.26939601    -36.139977      0.029597591    297.73404      81.756645      1728         
       480  -36.441947      0.29800196    -36.143945      0.029597591    329.34907     -1037.0308      1728         
       490  -36.473048      0.32523322    -36.147815      0.029597591    359.44481      376.00377      1728         
       500  -36.535544      0.38443219    -36.151112      0.029597591    424.87097      732.01219      1728         
       510  -36.379586      0.23147716    -36.148109      0.029597591    255.82646     -736.79455      1728         
       520  -36.428553      0.2741143     -36.154439      0.029597591    302.94865      1287.9473      1728         
       530  -36.520366      0.36177077    -36.158596      0.029597591    399.82579      160.92434      1728         
       540  -36.45125       0.2899347     -36.161315      0.029597591    320.43321     -1044.9837      1728         
       550  -36.394462      0.23031664    -36.164145      0.029597591    254.54387      1460.5121      1728         
       560  -36.465452      0.30114835    -36.164304      0.029597591    332.82644     -1068.3721      1728         
       570  -36.459102      0.29170882    -36.167393      0.029597591    322.39395     -566.64306      1728         
       580  -36.397423      0.22731674    -36.170106      0.029597591    251.22841      291.02097      1728         
       590  -36.400713      0.22731698    -36.173396      0.029597591    251.22867     -678.05302      1728         
       600  -36.509239      0.33227065    -36.176968      0.029597591    367.22252     -737.33871      1728         
       610  -36.455336      0.28222885    -36.173107      0.029597591    311.91677      1462.2757      1728         
       620  -36.406797      0.23310736    -36.17369       0.029597591    257.62815     -1515.8413      1728         
       630  -36.471132      0.29381892    -36.177313      0.029597591    324.72602      1501.3275      1728         
       640  -36.454397      0.27377094    -36.180626      0.029597591    302.56916      217.21543      1728         
       650  -36.418121      0.23568484    -36.182436      0.029597591    260.47675     -96.491222      1728         
       660  -36.448789      0.26977814    -36.17901       0.029597591    298.15636      219.59703      1728         
       670  -36.426968      0.24700275    -36.179965      0.029597591    272.98521      642.85773      1728         
       680  -36.435596      0.25474836    -36.180848      0.029597591    281.54558     -1731.087       1728         
       690  -36.422192      0.24100598    -36.181186      0.029597591    266.35763      1346.6181      1728         
       700  -36.40074       0.21754368    -36.183196      0.029597591    240.4273      -1406.3337      1728         
       710  -36.449072      0.27143986    -36.177632      0.029597591    299.99287     -164.88568      1728         
       720  -36.420963      0.24408074    -36.176882      0.029597591    269.75583      361.58642      1728         
       730  -36.416977      0.24341089    -36.173566      0.029597591    269.01551     -465.74639      1728         
       740  -36.499287      0.3289553     -36.170332      0.029597591    363.55842     -350.23106      1728         
       750  -36.441757      0.27644778    -36.165309      0.029597591    305.52758      1297.8919      1728         
       760  -36.398919      0.24091276    -36.158006      0.029597591    266.2546      -746.55284      1728         
       770  -36.43865       0.28363355    -36.155016      0.029597591    313.46923      1201.1746      1728         
       780  -36.446646      0.29769243    -36.148953      0.029597591    329.00698      340.11258      1728         
       790  -36.434288      0.29394394    -36.140344      0.029597591    324.86418     -854.53826      1728         
       800  -36.450093      0.31768276    -36.132411      0.029597591    351.10011      589.75126      1728         
       810  -36.373002      0.25350772    -36.119495      0.029597591    280.17444     -690.08745      1728         
       820  -36.378508      0.26632228    -36.112186      0.029597591    294.33697     -846.26427      1728         
       830  -36.40445       0.30393417    -36.100516      0.029597591    335.9053       578.54884      1728         
       840  -36.352709      0.26172699    -36.090982      0.029597591    289.25831     -469.19802      1728         
       850  -36.392776      0.31354739    -36.079228      0.029597591    346.52973     -368.77607      1728         
       860  -36.444573      0.38766477    -36.056908      0.029597591    428.4436       664.25719      1728         
       870  -36.335639      0.29649686    -36.039142      0.029597591    327.68565     -1465.2024      1728         
       880  -36.381526      0.35441575    -36.02711       0.029597591    391.69708      1144.8444      1728         
       890  -36.405089      0.39327462    -36.011814      0.029597591    434.64356      431.53735      1728         
       900  -36.306392      0.30613272    -36.000259      0.029597591    338.33511      216.58935      1728         
       910  -36.400038      0.4167041     -35.983334      0.029597591    460.5376       736.95685      1728         
       920  -36.42439       0.45094494    -35.973446      0.029597591    498.38027      255.07742      1728         
       930  -36.246031      0.28001424    -35.966017      0.029597591    309.46921     -1646.7183      1728         
       940  -36.353114      0.39173764    -35.961377      0.029597591    432.9449       1317.3905      1728         
       950  -36.336326      0.37885429    -35.957471      0.029597591    418.70633     -1303.0562      1728         
       960  -36.317428      0.36210937    -35.955319      0.029597591    400.2          386.78705      1728         
       970  -36.290824      0.3327417     -35.958082      0.029597591    367.74311      336.54496      1728         
       980  -36.307778      0.34297154    -35.964807      0.029597591    379.04905     -967.67458      1728         
       990  -36.318541      0.34835953    -35.970181      0.029597591    385.0038      -697.03791      1728         
      1000  -36.414269      0.43242718    -35.981842      0.029597591    477.91461      847.31133      1728         
      1010  -36.314089      0.32258245    -35.991506      0.029597591    356.51521     -1259.5149      1728         
      1020  -36.43965       0.42575303    -36.013896      0.029597591    470.5384       1658.3117      1728         
      1030  -36.360063      0.32459586    -36.035467      0.029597591    358.74041      550.37878      1728         
      1040  -36.341866      0.28199083    -36.059875      0.029597591    311.65371     -177.79799      1728         
      1050  -36.414443      0.32675483    -36.087688      0.029597591    361.12648      698.56837      1728         
      1060  -36.453149      0.3424946     -36.110654      0.029597591    378.52193     -352.43314      1728         
      1070  -36.367704      0.23630552    -36.131399      0.029597591    261.16273     -819.02488      1728         
      1080  -36.364396      0.2109051     -36.153491      0.029597591    233.09041      1110.0018      1728         
      1090  -36.385569      0.21269417    -36.172875      0.029597591    235.06768     -958.74729      1728         
      1100  -36.420884      0.23577628    -36.185108      0.029597591    260.57781     -484.6541       1728         
      1110  -36.37024       0.17867265    -36.191567      0.029597591    197.4674       519.20841      1728         
      1120  -36.398316      0.19625326    -36.202063      0.029597591    216.89733     -1201.5852      1728         
      1130  -36.477584      0.2676002     -36.209984      0.029597591    295.74932      145.4031       1728         
      1140  -36.443436      0.22911391    -36.214323      0.029597591    253.21462      371.79035      1728         
      1150  -36.42286       0.20571917    -36.217141      0.029597591    227.35896     -471.6619       1728         
      1160  -36.445551      0.22826099    -36.21729       0.029597591    252.27198      800.87097      1728         
      1170  -36.438024      0.21777927    -36.220245      0.029597591    240.68767      995.88234      1728         
      1180  -36.435521      0.21210191    -36.223419      0.029597591    234.41312     -691.37072      1728         
      1190  -36.428091      0.20646666    -36.221625      0.029597591    228.18508      1273.1754      1728         
      1200  -36.424549      0.20372799    -36.220821      0.029597591    225.15833     -571.47933      1728         
      1210  -36.44608       0.23397881    -36.212102      0.029597591    258.59126     -318.82413      1728         
      1220  -36.380868      0.17132904    -36.209539      0.029597591    189.35131      172.0314       1728         
      1230  -36.361362      0.15391779    -36.207445      0.029597591    170.10855     -523.50935      1728         
      1240  -36.418152      0.21360932    -36.204542      0.029597591    236.07908     -908.87998      1728         
      1250  -36.391519      0.19207837    -36.19944       0.029597591    212.28328      884.08468      1728         
      1260  -36.340795      0.15108971    -36.189705      0.029597591    166.98298     -1173.6694      1728         
      1270  -36.423539      0.24148289    -36.182056      0.029597591    266.8847       531.34577      1728         
      1280  -36.460581      0.2910171     -36.169564      0.029597591    321.62946     -372.46969      1728         
      1290  -36.406066      0.24958373    -36.156482      0.029597591    275.83768     -298.45499      1728         
      1300  -36.383168      0.23630788    -36.14686       0.029597591    261.16533      832.06134      1728         
      1310  -36.35871       0.22429125    -36.134419      0.029597591    247.88466      1183.6558      1728         
      1320  -36.400053      0.27277283    -36.12728       0.029597591    301.46606     -320.60316      1728         
      1330  -36.413898      0.30078657    -36.113111      0.029597591    332.42659      1317.6319      1728         
      1340  -36.399471      0.29862727    -36.100844      0.029597591    330.04015     -1017.7296      1728         
      1350  -36.368927      0.27864112    -36.090286      0.029597591    307.95165     -475.57084      1728         
      1360  -36.382637      0.30806579    -36.074571      0.029597591    340.47152      336.21009      1728         
      1370  -36.248563      0.18087101    -36.067692      0.029597591    199.89701     -660.1345       1728         
      1380  -36.341285      0.2776912     -36.063593      0.029597591    306.9018      -291.62246      1728         
      1390  -36.414037      0.3581088     -36.055928      0.029597591    395.77861      267.55917      1728         
      1400  -36.304707      0.25697144    -36.047735      0.029597591    284.00251     -1411.2594      1728         
      1410  -36.305158      0.27279431    -36.032364      0.029597591    301.48981      346.4021       1728         
      1420  -36.436888      0.41199092    -36.024897      0.029597591    455.32863      40.631681      1728         
      1430  -36.319847      0.30156162    -36.018285      0.029597591    333.28318     -264.6855       1728         
      1440  -36.349879      0.3349634     -36.014916      0.029597591    370.19852      1854.1388      1728         
      1450  -36.339188      0.32400199    -36.015186      0.029597591    358.08407      297.10841      1728         
      1460  -36.3876        0.37292628    -36.014674      0.029597591    412.15475      51.908811      1728         
      1470  -36.368376      0.35513963    -36.013237      0.029597591    392.49711      434.70153      1728         
      1480  -36.334075      0.32176999    -36.012305      0.029597591    355.61728     -493.62299      1728         
      1490  -36.346849      0.32989138    -36.016958      0.029597591    364.59297     -473.41632      1728         
      1500  -36.333441      0.30819386    -36.025247      0.029597591    340.61307      705.62723      1728         
      1510  -36.240163      0.21684523    -36.023318      0.029597591    239.65539     -2074.7583      1728         
      1520  -36.321768      0.29378619    -36.027982      0.029597591    324.68984      425.64921      1728         
      1530  -36.317711      0.28610532    -36.031605      0.029597591    316.20101     -527.69324      1728         
      1540  -36.318753      0.28355373    -36.035199      0.029597591    313.38102     -383.0192       1728         
      1550  -36.365541      0.33205132    -36.03349       0.029597591    366.98012      418.42792      1728         
      1560  -36.404582      0.3727532     -36.031828      0.029597591    411.96347      605.04504      1728         
      1570  -36.287304      0.25155308    -36.035751      0.029597591    278.01419     -389.00349      1728         
      1580  -36.302078      0.2592682     -36.042809      0.029597591    286.54087      2337.1805      1728         
      1590  -36.363888      0.31753117    -36.046357      0.029597591    350.93258     -817.60049      1728         
      1600  -36.38704       0.33685584    -36.050184      0.029597591    372.29002      111.01461      1728         
      1610  -36.315446      0.26988928    -36.045557      0.029597591    298.27919      577.553        1728         
      1620  -36.34501       0.29549958    -36.04951       0.029597591    326.58346     -582.23833      1728         
      1630  -36.359953      0.30464561    -36.055307      0.029597591    336.69157     -680.87165      1728         
      1640  -36.293102      0.23174987    -36.061352      0.029597591    256.12786      530.78062      1728         
      1650  -36.288418      0.223616      -36.064802      0.029597591    247.13838     -1917.2355      1728         
      1660  -36.403161      0.33766739    -36.065494      0.029597591    373.18694      724.76464      1728         
      1670  -36.344031      0.27417104    -36.06986       0.029597591    303.01136     -44.85021       1728         
      1680  -36.345975      0.27622731    -36.069747      0.029597591    305.28392     -805.17915      1728         
      1690  -36.399704      0.32738923    -36.072315      0.029597591    361.82762      750.40607      1728         
      1700  -36.357822      0.28088893    -36.076934      0.029597591    310.4359       272.54631      1728         
      1710  -36.317302      0.2393813     -36.077921      0.029597591    264.56205      196.82558      1728         
      1720  -36.356855      0.27157673    -36.085278      0.029597591    300.14415      1522.2346      1728         
      1730  -36.369405      0.28054697    -36.088858      0.029597591    310.05798     -339.22473      1728         
      1740  -36.400632      0.3077754     -36.092856      0.029597591    340.15059     -280.7691       1728         
      1750  -36.350482      0.25445348    -36.096029      0.029597591    281.21968      623.24414      1728         
      1760  -36.3274        0.23120821    -36.096192      0.029597591    255.52923     -1319.8922      1728         
      1770  -36.360268      0.25898239    -36.101286      0.029597591    286.22499      180.90278      1728         
      1780  -36.352886      0.24624645    -36.10664       0.029597591    272.14935     -236.60431      1728         
      1790  -36.311092      0.19980124    -36.111291      0.029597591    220.81853     -714.93496      1728         
      1800  -36.374979      0.25730488    -36.117674      0.029597591    284.37103      211.07437      1728         
      1810  -36.384988      0.26894036    -36.116047      0.029597591    297.23045     -188.66352      1728         
      1820  -36.391789      0.27684032    -36.114949      0.029597591    305.96142     -1219.7503      1728         
      1830  -36.392395      0.27330274    -36.119093      0.029597591    302.05172      1449.5352      1728         
      1840  -36.349966      0.22497557    -36.12499       0.029597591    248.64097     -69.731564      1728         
      1850  -36.337537      0.20677726    -36.13076       0.029597591    228.52836      1143.88        1728         
      1860  -36.372392      0.24214784    -36.130244      0.029597591    267.61961      893.66301      1728         
      1870  -36.385009      0.25057139    -36.134437      0.029597591    276.92924     -248.15074      1728         
      1880  -36.393701      0.25429543    -36.139406      0.029597591    281.045       -706.53385      1728         
      1890  -36.419602      0.28027151    -36.139331      0.029597591    309.75353      676.71851      1728         
      1900  -36.309586      0.16417217    -36.145413      0.029597591    181.4416      -1330.8224      1728         
      1910  -36.320163      0.17402403    -36.146139      0.029597591    192.32978      679.10908      1728         
      1920  -36.378562      0.22690554    -36.151657      0.029597591    250.77396     -742.17845      1728         
      1930  -36.36143       0.20739602    -36.154034      0.029597591    229.2122      -752.36454      1728         
      1940  -36.330837      0.17558817    -36.155248      0.029597591    194.05846      158.37953      1728         
      1950  -36.423726      0.26839093    -36.155335      0.029597591    296.62323     -283.33862      1728         
      1960  -36.438376      0.28959733    -36.148779      0.029597591    320.06035     -635.5729       1728         
      1970  -36.407334      0.25888028    -36.148454      0.029597591    286.11214      1582.7327      1728         
      1980  -36.307582      0.1572262     -36.150355      0.029597591    173.76497      268.96559      1728         
      1990  -36.40654       0.2508896     -36.15565       0.029597591    277.28092      896.99356      1728         
      2000  -36.441472      0.2888245     -36.152648      0.029597591    319.20622      622.03025      1728         
      2010  -36.379207      0.23639186    -36.142815      0.029597591    261.25815     -809.39612      1728         
      2020  -36.392154      0.25528793    -36.136866      0.029597591    282.14191      182.17734      1728         
      2030  -36.368776      0.23350348    -36.135272      0.029597591    258.06593      59.04767       1728         
      2040  -36.296946      0.16425814    -36.132688      0.029597591    181.53661     -1386.3874      1728         
      2050  -36.314269      0.18605041    -36.128218      0.029597591    205.62123      137.82345      1728         
      2060  -36.332352      0.21473326    -36.117618      0.029597591    237.32126     -723.55132      1728         
      2070  -36.358763      0.24903581    -36.109727      0.029597591    275.23212     -835.05649      1728         
      2080  -36.397424      0.29992614    -36.097498      0.029597591    331.47566      796.99153      1728         
      2090  -36.406417      0.33199072    -36.074427      0.029597591    366.91314     -740.10877      1728         
      2100  -36.398397      0.34318444    -36.055213      0.029597591    379.28434      431.4603       1728         
      2110  -36.261471      0.22210306    -36.039368      0.029597591    245.46629      1904.9967      1728         
      2120  -36.317802      0.2863667     -36.031435      0.029597591    316.48988      426.22343      1728         
      2130  -36.397767      0.38545159    -36.012315      0.029597591    425.99761      322.88351      1728         
      2140  -36.356583      0.36419444    -35.992389      0.029597591    402.5044       711.30859      1728         
      2150  -36.272393      0.30022438    -35.972169      0.029597591    331.80527     -1402.8221      1728         
      2160  -36.302751      0.3453008     -35.95745       0.029597591    381.62332      364.09908      1728         
      2170  -36.187977      0.23873142    -35.949246      0.029597591    263.84381     -965.18614      1728         
      2180  -36.199236      0.25744696    -35.941789      0.029597591    284.52805     -1022.0317      1728         
      2190  -36.25129       0.31964371    -35.931647      0.029597591    353.26734     -176.74441      1728         
      2200  -36.281362      0.35796782    -35.923394      0.029597591    395.6228      -206.38637      1728         
      2210  -36.295782      0.38996101    -35.905821      0.029597591    430.98138     -1123.8445      1728         
      2220  -36.341591      0.45180065    -35.889791      0.029597591    499.32599      1321.8243      1728         
      2230  -36.300025      0.41819862    -35.881826      0.029597591    462.18933     -543.63935      1728         
      2240  -36.268102      0.38156271    -35.886539      0.029597591    421.69965      1999.3025      1728         
      2250  -36.221112      0.32760484    -35.893507      0.029597591    362.0659       1352.2161      1728         
      2260  -36.339411      0.44576313    -35.893648      0.029597591    492.65338      12.892528      1728         
      2270  -36.361933      0.45721514    -35.904718      0.029597591    505.31004     -340.31447      1728         
      2280  -36.254702      0.33657293    -35.918129      0.029597591    371.97735      495.55631      1728         
      2290  -36.21802       0.28038657    -35.937633      0.029597591    309.88071     -1751.6864      1728         
      2300  -36.255418      0.2962965     -35.959121      0.029597591    327.46422      393.52821      1728         
      2310  -36.226071      0.25374766    -35.972323      0.029597591    280.43962     -1103.8156      1728         
      2320  -36.206881      0.21978185    -35.987099      0.029597591    242.90091     -705.18792      1728         
      2330  -36.316023      0.30478111    -36.011242      0.029597591    336.84132     -17.743457      1728         
      2340  -36.355195      0.31725379    -36.037941      0.029597591    350.62602     -451.98819      1728         
      2350  -36.45509       0.3961457     -36.058944      0.029597591    437.81664     -477.59965      1728         
      2360  -36.382316      0.29983172    -36.082484      0.029597591    331.37131      1353.2259      1728         
      2370  -36.293256      0.18437138    -36.108885      0.029597591    203.76558      692.19894      1728         
      2380  -36.359965      0.23137626    -36.128589      0.029597591    255.71494      1188.3827      1728         
      2390  -36.461996      0.31809658    -36.1439        0.029597591    351.55746      681.83652      1728         
      2400  -36.408255      0.24769326    -36.160562      0.029597591    273.74835     -980.82494      1728         
      2410  -36.377041      0.21405226    -36.162988      0.029597591    236.56862      251.24046      1728         
      2420  -36.383876      0.21265389    -36.171222      0.029597591    235.02315     -452.96166      1728         
      2430  -36.311077      0.13378855    -36.177289      0.029597591    147.8619      -774.5292       1728         
      2440  -36.295925      0.11540098    -36.180524      0.029597591    127.54012     -72.21326       1728         
      2450  -36.363191      0.17941754    -36.183774      0.029597591    198.29064     -607.62361      1728         
      2460  -36.385484      0.2067366     -36.178747      0.029597591    228.48342     -863.06167      1728         
      2470  -36.409431      0.2342557     -36.175175      0.029597591    258.89728      598.49957      1728         
      2480  -36.442572      0.2745298     -36.168043      0.029597591    303.40785     -833.73688      1728         
      2490  -36.388726      0.22434812    -36.164378      0.029597591    247.94752      1080.0367      1728         
      2500  -36.346281      0.18244526    -36.163836      0.029597591    201.63685      1410.129       1728         
      2510  -36.356198      0.19571992    -36.160478      0.029597591    216.30788      726.56135      1728         
      2520  -36.430848      0.27521125    -36.155637      0.029597591    304.16099      186.9905       1728         
      2530  -36.445177      0.2983695     -36.146808      0.029597591    329.75527      368.02922      1728         
      2540  -36.358495      0.22019545    -36.138299      0.029597591    243.35802     -1295.7861      1728         
      2550  -36.267349      0.13105738    -36.136291      0.029597591    144.84343      593.80278      1728         
      2560  -36.295185      0.16590756    -36.129277      0.029597591    183.35953     -1082.4245      1728         
      2570  -36.292621      0.1674486     -36.125172      0.029597591    185.06268     -767.44377      1728         
      2580  -36.27371       0.15402572    -36.119684      0.029597591    170.22783     -120.56577      1728         
      2590  -36.33412       0.22263337    -36.111487      0.029597591    246.05239     -606.35224      1728         
      2600  -36.387846      0.28674126    -36.101105      0.029597591    316.90384     -566.05551      1728         
      2610  -36.418411      0.34253503    -36.075876      0.029597591    378.56661      867.64744      1728         
      2620  -36.376734      0.31905886    -36.057675      0.029597591    352.62097     -338.06407      1728         
      2630  -36.267315      0.21375552    -36.05356       0.029597591    236.24067      1982.3379      1728         
      2640  -36.34978       0.29944981    -36.050331      0.029597591    330.94922      1378.3132      1728         
      2650  -36.382805      0.34574972    -36.037056      0.029597591    382.11947     -429.72543      1728         
      2660  -36.383355      0.36581205    -36.017543      0.029597591    404.29216      302.06367      1728         
      2670  -36.31951       0.31133113    -36.008179      0.029597591    344.08035     -103.71397      1728         
      2680  -36.246118      0.24246632    -36.003652      0.029597591    267.97159     -1310.2559      1728         
      2690  -36.238386      0.23793234    -36.000454      0.029597591    262.96067      67.172921      1728         
      2700  -36.194194      0.19659687    -35.997597      0.029597591    217.27708     -891.42627      1728         
      2710  -36.227206      0.23915347    -35.988053      0.029597591    264.31025     -1200.545       1728         
      2720  -36.266828      0.28504656    -35.981781      0.029597591    315.03088      583.12543      1728         
      2730  -36.331006      0.35604287    -35.974963      0.029597591    393.49536     -1126.0424      1728         
      2740  -36.43057       0.47282878    -35.957741      0.029597591    522.56609      117.89308      1728         
      2750  -36.361399      0.41302857    -35.948371      0.029597591    456.47544      1106.7412      1728         
      2760  -36.137259      0.19124001    -35.946019      0.029597591    211.35673      1259.9941      1728         
      2770  -36.350866      0.39826238    -35.952604      0.029597591    440.15598      1264.8153      1728         
      2780  -36.379994      0.43007344    -35.949921      0.029597591    475.31328      975.51821      1728         
      2790  -36.308742      0.35783518    -35.950907      0.029597591    395.47621     -1356.7639      1728         
      2800  -36.33667       0.38047973    -35.95619       0.029597591    420.50275      666.49325      1728         
      2810  -36.238448      0.27433728    -35.96411       0.029597591    303.19507     -1184.6054      1728         
      2820  -36.153758      0.18020957    -35.973549      0.029597591    199.16598     -722.94951      1728         
      2830  -36.189716      0.2052828     -35.984434      0.029597591    226.87669     -289.37223      1728         
      2840  -36.199077      0.20242127    -35.996656      0.029597591    223.71416     -720.4034       1728         
      2850  -36.32478       0.31232038    -36.01246       0.029597591    345.17366     -909.91282      1728         
      2860  -36.363726      0.33109983    -36.032626      0.029597591    365.92854      612.76437      1728         
      2870  -36.373264      0.31132876    -36.061936      0.029597591    344.07772     -1164.789       1728         
      2880  -36.431545      0.33213727    -36.099408      0.029597591    367.07511      1167.3856      1728         
      2890  -36.323374      0.18966078    -36.133713      0.029597591    209.61138      1290.9852      1728         
      2900  -36.312265      0.15344383    -36.158821      0.029597591    169.58473      829.87523      1728         
      2910  -36.469179      0.28917449    -36.180004      0.029597591    319.59303      608.10081      1728         
      2920  -36.466205      0.26105752    -36.205148      0.029597591    288.51841     -64.210409      1728         
      2930  -36.373829      0.15652969    -36.217299      0.029597591    172.99519     -964.76937      1728         
      2940  -36.351011      0.12421897    -36.226792      0.029597591    137.28569      334.14547      1728         
      2950  -36.357393      0.12344456    -36.233949      0.029597591    136.42981     -984.74361      1728         
      2960  -36.35277       0.12051411    -36.232256      0.029597591    133.1911      -391.47403      1728         
      2970  -36.363802      0.12840487    -36.235397      0.029597591    141.9119       9.9708921      1728         
      2980  -36.398186      0.16203645    -36.236149      0.029597591    179.08122     -907.79513      1728         
      2990  -36.444563      0.21131039    -36.233253      0.029597591    233.53833     -242.62176      1728         
      3000  -36.466493      0.23765165    -36.228842      0.029597591    262.65045      523.95706      1728         
      3010  -36.403052      0.18434972    -36.218702      0.029597591    203.74164      183.302        1728         
      3020  -36.340136      0.12063572    -36.2195        0.029597591    133.32551      1572.6094      1728         
      3030  -36.422898      0.20441895    -36.218479      0.029597591    225.92197      985.34813      1728         
      3040  -36.467124      0.25874068    -36.208383      0.029597591    285.95786     -542.12608      1728         
      3050  -36.387169      0.18971048    -36.197459      0.029597591    209.6663       465.82218      1728         
      3060  -36.376646      0.19605933    -36.180586      0.029597591    216.683       -799.92097      1728         
      3070  -36.354891      0.1823879     -36.172503      0.029597591    201.57346     -600.40158      1728         
      3080  -36.289993      0.12471104    -36.165282      0.029597591    137.82952      131.89553      1728         
      3090  -36.304103      0.14539151    -36.158712      0.029597591    160.68539     -708.76156      1728         
      3100  -36.302703      0.1541053     -36.148598      0.029597591    170.31579     -732.0469       1728         
      3110  -36.302006      0.16954544    -36.13246       0.029597591    187.38008      240.54128      1728         
      3120  -36.380166      0.26470344    -36.115462      0.029597591    292.54784     -1351.0482      1728         
      3130  -36.417692      0.32876806    -36.088924      0.029597591    363.35148      583.682        1728         
      3140  -36.399914      0.33615298    -36.063761      0.029597591    371.51323      610.82813      1728         
      3150  -36.280655      0.23182366    -36.048831      0.029597591    256.20941      984.70148      1728         
      3160  -36.253848      0.21308493    -36.040763      0.029597591    235.49954      1706.8489      1728         
      3170  -36.411706      0.38448998    -36.027216      0.029597591    424.93485      568.46697      1728         
      3180  -36.387083      0.37960667    -36.007476      0.029597591    419.53785     -1115.1352      1728         
      3190  -36.334633      0.33788555    -35.996748      0.029597591    373.42805      652.17926      1728         
      3200  -36.246878      0.25647202    -35.990406      0.029597591    283.45056     -1023.529       1728         
      3210  -36.192582      0.20942491    -35.983157      0.029597591    231.45452     -546.36585      1728         
      3220  -36.168633      0.18885366    -35.979779      0.029597591    208.71936     -193.10424      1728         
      3230  -36.176858      0.20085039    -35.976008      0.029597591    221.97803     -1301.1478      1728         
      3240  -36.228558      0.25703141    -35.971527      0.029597591    284.06879     -484.89994      1728         
      3250  -36.297451      0.33261297    -35.964838      0.029597591    367.60085      219.17064      1728         
      3260  -36.344843      0.39521557    -35.949628      0.029597591    436.78868     -1145.1143      1728         
      3270  -36.423552      0.48687457    -35.936677      0.029597591    538.08937      918.45219      1728         
      3280  -36.27036       0.33952301    -35.930837      0.029597591    375.23776      1079.4485      1728         
      3290  -36.197965      0.25944365    -35.938521      0.029597591    286.73478      1231.2319      1728         
      3300  -36.355204      0.41211096    -35.943093      0.029597591    455.46131      1556.9386      1728         
      3310  -36.424353      0.48539594    -35.938957      0.029597591    536.4552      -382.32781      1728         
      3320  -36.310144      0.36939775    -35.940747      0.029597591    408.25505     -527.87891      1728         
      3330  -36.273958      0.32353306    -35.950425      0.029597591    357.56581      257.54228      1728         
      3340  -36.163626      0.20397869    -35.959647      0.029597591    225.43541     -1218.8083      1728         
      3350  -36.20154       0.23396857    -35.967572      0.029597591    258.57995     -594.13835      1728         
      3360  -36.227447      0.25851179    -35.968935      0.029597591    285.70489     -260.26551      1728         
      3370  -36.193971      0.21824643    -35.975724      0.029597591    241.20398     -1247.5159      1728         
      3380  -36.243361      0.26198576    -35.981375      0.029597591    289.54429      256.45897      1728         
      3390  -36.408746      0.42204482    -35.986701      0.029597591    466.44012     -536.62623      1728         
      3400  -36.37188       0.37971767    -35.992162      0.029597591    419.66054     -639.54933      1728         
      3410  -36.348267      0.34997747    -35.998289      0.029597591    386.79193      1327.4565      1728         
      3420  -36.277642      0.26333101    -36.014311      0.029597591    291.03105      1240.9943      1728         
      3430  -36.289163      0.25586234    -36.0333        0.029597591    282.77675      923.99472      1728         
      3440  -36.408072      0.35897453    -36.049098      0.029597591    396.73541      1130.2012      1728         
      3450  -36.397399      0.32682613    -36.070573      0.029597591    361.20528     -793.76079      1728         
      3460  -36.377221      0.28737866    -36.089842      0.029597591    317.60829     -439.21023      1728         
      3470  -36.302904      0.19294129    -36.109963      0.029597591    213.23697     -185.56511      1728         
      3480  -36.253772      0.12819467    -36.125577      0.029597591    141.67959     -986.42688      1728         
      3490  -36.282139      0.14356805    -36.138571      0.029597591    158.67011     -95.2825        1728         
      3500  -36.328694      0.1770809     -36.151613      0.029597591    195.70821     -185.44904      1728         
      3510  -36.291234      0.13402735    -36.157206      0.029597591    148.12581     -1104.7275      1728         
      3520  -36.375189      0.20790567    -36.167284      0.029597591    229.77547      187.25059      1728         
      3530  -36.443246      0.26555421    -36.177692      0.029597591    293.48811     -673.94906      1728         
      3540  -36.457999      0.27051078    -36.187488      0.029597591    298.96606      81.226977      1728         
      3550  -36.351238      0.15557167    -36.195666      0.029597591    171.93641      1462.8416      1728         
      3560  -36.311402      0.11249586    -36.198906      0.029597591    124.3294       998.21892      1728         
      3570  -36.423678      0.21875346    -36.204924      0.029597591    241.76434      545.86261      1728         
      3580  -36.48416       0.27776641    -36.206394      0.029597591    306.98492      582.06125      1728         
      3590  -36.397025      0.19208072    -36.204945      0.029597591    212.28587     -1035.3155      1728         
      3600  -36.395746      0.19027357    -36.205472      0.029597591    210.28863     -162.40225      1728         
      3610  -36.329809      0.12964542    -36.200163      0.029597591    143.28295     -306.37407      1728         
      3620  -36.299653      0.099182924   -36.200471      0.029597591    109.61607     -713.63313      1728         
      3630  -36.324194      0.12487793    -36.199316      0.029597591    138.01396     -139.4004       1728         
      3640  -36.341352      0.14580265    -36.19555       0.029597591    161.13977     -522.72798      1728         
      3650  -36.374568      0.18407872    -36.190489      0.029597591    203.44213     -1040.2349      1728         
      3660  -36.429642      0.25401758    -36.175625      0.029597591    280.73793      564.29131      1728         
      3670  -36.42443       0.26094239    -36.163487      0.029597591    288.39116     -198.64995      1728         
      3680  -36.33722       0.18233888    -36.154881      0.029597591    201.51928      1050.1073      1728         
      3690  -36.290464      0.13618301    -36.154281      0.029597591    150.50823      1684.3554      1728         
      3700  -36.38427       0.23050886    -36.153761      0.029597591    254.75631      374.20027      1728         
      3710  -36.474704      0.33709553    -36.137609      0.029597591    372.55493     -205.69415      1728         
      3720  -36.376002      0.2521779     -36.123824      0.029597591    278.70474      344.50374      1728         
      3730  -36.334616      0.21470146    -36.119914      0.029597591    237.28611     -1203.9113      1728         
      3740  -36.294359      0.17863498    -36.115724      0.029597591    197.42576      166.52618      1728         
      3750  -36.260737      0.14731371    -36.113424      0.029597591    162.80977     -564.86868      1728         
      3760  -36.260714      0.15595443    -36.104759      0.029597591    172.35943     -1022.7187      1728         
      3770  -36.281183      0.18133202    -36.099851      0.029597591    200.40651     -8.0605756      1728         
      3780  -36.288162      0.19287367    -36.095288      0.029597591    213.16223     -570.02714      1728         
      3790  -36.357642      0.27242713    -36.085215      0.029597591    301.084       -718.51863      1728         
      3800  -36.395365      0.32343483    -36.071931      0.029597591    357.45725      453.33017      1728         
      3810  -36.384222      0.33227286    -36.05195       0.029597591    367.22496     -84.457003      1728         
      3820  -36.288771      0.2462661     -36.042505      0.029597591    272.17106      1114.8256      1728         
      3830  -36.207999      0.16515767    -36.042841      0.029597591    182.53076      1954.849       1728         
      3840  -36.339859      0.30423578    -36.035624      0.029597591    336.23863      17.990368      1728         
      3850  -36.415017      0.39120251    -36.023815      0.029597591    432.35347      350.70925      1728         
      3860  -36.334042      0.33202467    -36.002017      0.029597591    366.95066     -171.59422      1728         
      3870  -36.26046       0.26556196    -35.994898      0.029597591    293.49668     -942.14297      1728         
      3880  -36.237717      0.24750287    -35.990214      0.029597591    273.53793     -250.93084      1728         
      3890  -36.175189      0.18765835    -35.98753       0.029597591    207.39831     -542.62075      1728         
      3900  -36.177604      0.19424166    -35.983363      0.029597591    214.67413     -1363.9083      1728         
      3910  -36.184863      0.21404962    -35.970813      0.029597591    236.5657       475.79419      1728         
      3920  -36.245257      0.28258917    -35.962667      0.029597591    312.315       -1263.1606      1728         
      3930  -36.355679      0.40821232    -35.947467      0.029597591    451.15256     -264.2143       1728         
      3940  -36.390737      0.46267406    -35.928063      0.029597591    511.34318      115.48696      1728         
      3950  -36.314787      0.4019889     -35.912799      0.029597591    444.2745       409.11932      1728         
      3960  -36.184525      0.2806906     -35.903835      0.029597591    310.21671      1691.5772      1728         
      3970  -36.218654      0.30853615    -35.910118      0.029597591    340.99136      2305.1345      1728         
      3980  -36.369615      0.46807138    -35.901543      0.029597591    517.30826     -656.41496      1728         
      3990  -36.337408      0.44332877    -35.894079      0.029597591    489.96295      842.46841      1728         
      4000  -36.291335      0.39197935    -35.899356      0.029597591    433.21204     -767.2316       1728         
      4010  -36.187342      0.28804187    -35.8993        0.029597591    318.34126     -848.65534      1728         
      4020  -36.093011      0.1865312     -35.90648       0.029597591    206.15259     -149.14836      1728         
      4030  -36.104278      0.19317977    -35.911099      0.029597591    213.50054     -696.0704       1728         
      4040  -36.142065      0.22774514    -35.91432       0.029597591    251.70186     -1401.1902      1728         
      4050  -36.161323      0.24435226    -35.916971      0.029597591    270.0559       322.36258      1728         
      4060  -36.19064       0.27360751    -35.917033      0.029597591    302.38855     -1487.9244      1728         
      4070  -36.338742      0.42131742    -35.917425      0.029597591    465.6362       24.813335      1728         
      4080  -36.407346      0.48753645    -35.91981       0.029597591    538.82087      123.88872      1728         
      4090  -36.323667      0.39039469    -35.933272      0.029597591    431.46068      374.68644      1728         
      4100  -36.172542      0.21729711    -35.955245      0.029597591    240.1548       2224.8387      1728         
      4110  -36.30242       0.32840882    -35.974011      0.029597591    362.95446      1674.6684      1728         
      4120  -36.420802      0.42160041    -35.999202      0.029597591    465.94895     -456.17503      1728         
      4130  -36.374885      0.3439709     -36.030914      0.029597591    380.15352      536.88022      1728         
      4140  -36.326133      0.2606426     -36.06549       0.029597591    288.05984     -636.99616      1728         
      4150  -36.274876      0.18754932    -36.087327      0.029597591    207.27781     -888.40267      1728         
      4160  -36.220949      0.12151662    -36.099432      0.029597591    134.29907      57.097883      1728         
      4170  -36.228818      0.11894643    -36.109872      0.029597591    131.45852     -1203.8389      1728         
      4180  -36.246779      0.12831386    -36.118465      0.029597591    141.81132     -631.99644      1728         
      4190  -36.279023      0.1536981     -36.125325      0.029597591    169.86575      23.626829      1728         
      4200  -36.366329      0.23579491    -36.130534      0.029597591    260.5984      -1012.6607      1728         
      4210  -36.438238      0.30565016    -36.132588      0.029597591    337.8018       72.996282      1728         
      4220  -36.454904      0.31742995    -36.137474      0.029597591    350.82071      801.2349       1728         
      4230  -36.291639      0.15173366    -36.139905      0.029597591    167.69467      623.89174      1728         
      4240  -36.284603      0.13313849    -36.151465      0.029597591    147.14345      2175.994       1728         
      4250  -36.454751      0.30177483    -36.152977      0.029597591    333.51881      353.23831      1728         
      4260  -36.447275      0.2988754     -36.1484        0.029597591    330.31439     -432.16484      1728         
      4270  -36.372925      0.22758232    -36.145343      0.029597591    251.52192      108.6069       1728         
      4280  -36.324535      0.17765536    -36.146879      0.029597591    196.3431      -821.53328      1728         
      4290  -36.26355       0.11772303    -36.145827      0.029597591    130.10643     -892.31765      1728         
      4300  -36.249535      0.10386152    -36.145673      0.029597591    114.78682      311.19856      1728         
      4310  -36.240019      0.10119095    -36.138828      0.029597591    111.83532     -1339.3213      1728         
      4320  -36.300084      0.16372863    -36.136356      0.029597591    180.9514       122.64455      1728         
      4330  -36.335357      0.20744       -36.127917      0.029597591    229.26081     -457.02049      1728         
      4340  -36.373208      0.25819097    -36.115018      0.029597591    285.35032     -771.65915      1728         
      4350  -36.398188      0.30600289    -36.092185      0.029597591    338.19163      530.37253      1728         
      4360  -36.330817      0.26282388    -36.067993      0.029597591    290.47057      1213.2936      1728         
      4370  -36.189816      0.12625327    -36.063562      0.029597591    139.53397      760.09002      1728         
      4380  -36.302761      0.24569697    -36.057064      0.029597591    271.54207      2072.9245      1728         
      4390  -36.428607      0.39733561    -36.031272      0.029597591    439.13172     -403.63664      1728         
      4400  -36.363837      0.35714664    -36.006691      0.029597591    394.71524     -398.31828      1728         
      4410  -36.251386      0.26572511    -35.985661      0.029597591    293.67699     -28.510424      1728         
      4420  -36.221092      0.24739069    -35.973701      0.029597591    273.41395     -941.02223      1728         
      4430  -36.195853      0.22900419    -35.966849      0.029597591    253.09336     -659.39658      1728         
      4440  -36.16637       0.2054233     -35.960947      0.029597591    227.03198      292.40809      1728         
      4450  -36.145282      0.19320765    -35.952075      0.029597591    213.53135     -1680.2936      1728         
      4460  -36.199608      0.26156476    -35.938044      0.029597591    289.079        116.83356      1728         
      4470  -36.259945      0.33197203    -35.927973      0.029597591    366.89249     -547.81859      1728         
      4480  -36.310758      0.39309167    -35.917666      0.029597591    434.44135     -642.37693      1728         
      4490  -36.313225      0.41166816    -35.901556      0.029597591    454.97193      957.62961      1728         
      4500  -36.225518      0.32906502    -35.896453      0.029597591    363.67968      920.22889      1728         
      4510  -36.097376      0.20138332    -35.895992      0.029597591    222.56703      913.7001       1728         
      4520  -36.213582      0.31140658    -35.902175      0.029597591    344.16374      1853.3374      1728         
      4530  -36.318683      0.42098208    -35.897701      0.029597591    465.26559     -510.08056      1728         
      4540  -36.323031      0.42998944    -35.893042      0.029597591    475.22044     -395.73375      1728         
      4550  -36.22036       0.32237136    -35.897989      0.029597591    356.28191      635.90873      1728         
      4560  -36.102957      0.20482084    -35.898136      0.029597591    226.36613     -1240.4759      1728         
      4570  -36.134758      0.23312788    -35.90163       0.029597591    257.65082     -222.48666      1728         
      4580  -36.109048      0.20481832    -35.904229      0.029597591    226.36335     -418.57827      1728         
      4590  -36.06739       0.16281759    -35.904572      0.029597591    179.94453     -1484.5608      1728         
      4600  -36.137458      0.23278724    -35.90467       0.029597591    257.27435      102.69755      1728         
      4610  -36.186265      0.28698155    -35.899284      0.029597591    317.16942     -394.1109       1728         
      4620  -36.220054      0.32421684    -35.895837      0.029597591    358.32152     -1137.8641      1728         
      4630  -36.373141      0.47833432    -35.894807      0.029597591    528.65077      933.46801      1728         
      4640  -36.353735      0.45816295    -35.895572      0.029597591    506.35755     -242.75582      1728         
      4650  -36.206226      0.30576216    -35.900464      0.029597591    337.92557      1584.0438      1728         
      4660  -36.208755      0.29700837    -35.911747      0.029597591    328.25096      2311.0826      1728         
      4670  -36.291233      0.3681135     -35.923119      0.029597591    406.83571      257.48857      1728         
      4680  -36.378522      0.44312214    -35.9354        0.029597591    489.73458     -158.01549      1728         
      4690  -36.337999      0.38927658    -35.948722      0.029597591    430.22495      393.23617      1728         
      4700  -36.165159      0.20340295    -35.961756      0.029597591    224.79909     -1827.1364      1728         
      4710  -36.172737      0.20435817    -35.968379      0.029597591    225.8548       460.63238      1728         
      4720  -36.15393       0.17632522    -35.977604      0.029597591    194.87304     -811.074        1728         
      4730  -36.090727      0.10796264    -35.982764      0.029597591    119.31933     -796.68665      1728         
      4740  -36.131         0.14449738    -35.986503      0.029597591    159.6972       194.52711      1728         
      4750  -36.207657      0.2166415     -35.991015      0.029597591    239.43023     -742.65493      1728         
      4760  -36.243648      0.25768274    -35.985965      0.029597591    284.78864     -1177.0311      1728         
      4770  -36.323176      0.33263557    -35.99054       0.029597591    367.62583      1145.1528      1728         
      4780  -36.311323      0.32373017    -35.987593      0.029597591    357.78366     -809.88428      1728         
      4790  -36.206527      0.21661246    -35.989915      0.029597591    239.39813      1656.4678      1728         
      4800  -36.161007      0.16518365    -35.995823      0.029597591    182.55948      1757.7025      1728         
      4810  -36.231094      0.23420039    -35.996894      0.029597591    258.83615      363.2902       1728         
      4820  -36.357465      0.36008179    -35.997383      0.029597591    397.95914      319.23878      1728         
      4830  -36.334982      0.3413052     -35.993677      0.029597591    377.20742      297.11093      1728         
      4840  -36.204104      0.20567564    -35.998429      0.029597591    227.31085     -1561.8996      1728         
      4850  -36.165931      0.16511116    -36.00082       0.029597591    182.47937      758.64808      1728         
      4860  -36.182111      0.18274711    -35.999364      0.029597591    201.97045     -1000.871       1728         
      4870  -36.14329       0.14234686    -36.000943      0.029597591    157.32046     -873.93817      1728         
      4880  -36.093085      0.092142562   -36.000942      0.029597591    101.83513      328.2264       1728         
      4890  -36.155947      0.15702958    -35.998917      0.029597591    173.54767     -1104.3658      1728         
      4900  -36.246864      0.25489788    -35.991966      0.029597591    281.71083     -642.85837      1728         
      4910  -36.3224        0.35211538    -35.970285      0.029597591    389.15473      451.34492      1728         
      4920  -36.349856      0.40925439    -35.940602      0.029597591    452.30425     -1164.7913      1728         
      4930  -36.362507      0.4530977     -35.909409      0.029597591    500.75948      1337.417       1728         
      4940  -36.099234      0.20686046    -35.892374      0.029597591    228.6203       2540.1756      1728         
      4950  -36.221579      0.33186449    -35.889714      0.029597591    366.77363      522.54713      1728         
      4960  -36.374798      0.53303026    -35.841768      0.029597591    589.10022      1162.7207      1728         
      4970  -36.338014      0.53287374    -35.80514       0.029597591    588.92723     -249.26437      1728         
      4980  -36.171536      0.38695944    -35.784577      0.029597591    427.66407     -1035.8183      1728         
      4990  -36.039321      0.2687434     -35.770577      0.029597591    297.01277      311.64757      1728         
      5000  -35.973701      0.20767751    -35.766023      0.029597591    229.5233      -1111.8995      1728         
      5010  -35.995363      0.24075828    -35.754605      0.029597591    266.08388     -1304.2616      1728         
      5020  -35.909351      0.16415982    -35.745191      0.029597591    181.42794      394.03253      1728         
      5030  -35.938119      0.2028116     -35.735307      0.029597591    224.14555     -1733.5048      1728         
      5040  -36.078401      0.35659781    -35.721803      0.029597591    394.10867     -124.98207      1728         
      5050  -36.115241      0.40803567    -35.707205      0.029597591    450.95733     -154.46325      1728         
      5060  -36.187955      0.50932121    -35.678634      0.029597591    562.89719     -966.11179      1728         
      5070  -36.279024      0.61770396    -35.66132       0.029597591    682.68082      795.32366      1728         
      5080  -36.076034      0.41775989    -35.658274      0.029597591    461.70445      1957.5771      1728         
      5090  -35.906534      0.23444746    -35.672086      0.029597591    259.10921      1268.5194      1728         
      5100  -36.144813      0.45863503    -35.686178      0.029597591    506.87929      2492.8301      1728         
      5110  -36.251757      0.55468893    -35.697068      0.029597591    613.03719     -662.56362      1728         
      5120  -36.208066      0.4859841     -35.722081      0.029597591    537.10523     -636.81916      1728         
      5130  -36.124639      0.37666621    -35.747973      0.029597591    416.28809      237.07674      1728         
      5140  -35.996039      0.21487083    -35.781168      0.029597591    237.4733      -841.12287      1728         
      5150  -35.987735      0.1884171     -35.799318      0.029597591    208.23687     -959.49604      1728         
      5160  -35.958116      0.15030155    -35.807814      0.029597591    166.11192      136.42046      1728         
      5170  -35.928103      0.11191724    -35.816185      0.029597591    123.68992     -2017.6732      1728         
      5180  -36.063065      0.23633916    -35.826726      0.029597591    261.1999       172.03087      1728         
      5190  -36.155049      0.3113042     -35.843744      0.029597591    344.05059     -582.73434      1728         
      5200  -36.200793      0.34723577    -35.853557      0.029597591    383.76183     -609.15515      1728         
      5210  -36.313526      0.44197126    -35.871554      0.029597591    488.46263      632.52127      1728         
      5220  -36.277013      0.38457658    -35.892436      0.029597591    425.03056      795.78654      1728         
      5230  -36.068233      0.16499642    -35.903236      0.029597591    182.35255      976.25303      1728         
      5240  -36.164002      0.23990843    -35.924094      0.029597591    265.14463      2503.4028      1728         
      5250  -36.323265      0.38920597    -35.934059      0.029597591    430.14692     -187.97064      1728         
      5260  -36.336774      0.390974      -35.9458        0.029597591    432.10093      237.90222      1728         
      5270  -36.267591      0.3008765     -35.966714      0.029597591    332.52598     -20.50611       1728         
      5280  -36.17264       0.19500727    -35.977632      0.029597591    215.52028     -1185.5663      1728         
      5290  -36.17477       0.18912597    -35.985644      0.029597591    209.02031     -310.80376      1728         
      5300  -36.190903      0.1978568     -35.993046      0.029597591    218.66954     -27.138443      1728         
      5310  -36.120883      0.12795841    -35.992925      0.029597591    141.41848     -1370.6025      1728         
      5320  -36.15802       0.1613535     -35.996666      0.029597591    178.32642      585.62318      1728         
      5330  -36.224198      0.22614838    -35.998049      0.029597591    249.93714     -778.91299      1728         
      5340  -36.283128      0.28810333    -35.995025      0.029597591    318.40919     -978.51101      1728         
      5350  -36.324157      0.32853564    -35.995621      0.029597591    363.09462      630.52999      1728         
      5360  -36.332895      0.33992033    -35.992975      0.029597591    375.67687      215.66337      1728         
      5370  -36.172084      0.17949484    -35.992589      0.029597591    198.37607      1115.4272      1728         
      5380  -36.116735      0.11694402    -35.999791      0.029597591    129.24548      2149.3918      1728         
      5390  -36.276632      0.28018699    -35.996445      0.029597591    309.66013      172.90286      1728         
      5400  -36.358687      0.36246775    -35.996219      0.029597591    400.59608     -10.01885       1728         
      5410  -36.272388      0.28220918    -35.990179      0.029597591    311.89504      50.498928      1728         
      5420  -36.150168      0.16148233    -35.988686      0.029597591    178.46881     -1545.6993      1728         
      5430  -36.131084      0.14335729    -35.987727      0.029597591    158.43718      402.3306       1728         
      5440  -36.128979      0.14053105    -35.988448      0.029597591    155.31365     -269.15732      1728         
      5450  -36.096522      0.10938469    -35.987138      0.029597591    120.89097     -932.02808      1728         
      5460  -36.094097      0.11530036    -35.978797      0.029597591    127.42892      185.03472      1728         
      5470  -36.126426      0.152263      -35.974163      0.029597591    168.27969     -802.6753       1728         
      5480  -36.192546      0.22695897    -35.965587      0.029597591    250.833       -1099.517       1728         
      5490  -36.207115      0.2585725     -35.948542      0.029597591    285.77199      636.68937      1728         
      5500  -36.260337      0.32502522    -35.935312      0.029597591    359.21493     -622.68196      1728         
      5510  -36.333537      0.42834959    -35.905187      0.029597591    473.40809      1007.8348      1728         
      5520  -36.125338      0.24085004    -35.884488      0.029597591    266.18528      1606.8675      1728         
      5530  -36.05783       0.17091009    -35.88692       0.029597591    188.88829      939.27954      1728         
      5540  -36.307641      0.43673761    -35.870904      0.029597591    482.67845      1003.9845      1728         
      5550  -36.290376      0.43985522    -35.850521      0.029597591    486.12402      384.25039      1728         
      5560  -36.230035      0.39360913    -35.836426      0.029597591    435.01325     -1135.617       1728         
      5570  -36.174325      0.34665715    -35.827667      0.029597591    383.12235      471.9947       1728         
      5580  -36.061157      0.23505643    -35.8261        0.029597591    259.78224     -1152.6345      1728         
      5590  -36.087552      0.26286271    -35.824689      0.029597591    290.51349     -737.5985       1728         
      5600  -36.085598      0.26223354    -35.823365      0.029597591    289.81813     -124.85715      1728         
      5610  -36.028633      0.21264865    -35.815984      0.029597591    235.01737     -780.64659      1728         
      5620  -36.093054      0.27879761    -35.814256      0.029597591    308.12459     -155.01733      1728         
      5630  -36.215253      0.40656514    -35.808688      0.029597591    449.33211      71.829646      1728         
      5640  -36.202284      0.40277074    -35.799513      0.029597591    445.13858     -1540.7943      1728         
      5650  -36.279756      0.4887397     -35.791017      0.029597591    540.15069      501.35935      1728         
      5660  -36.246885      0.45656018    -35.790325      0.029597591    504.58618      738.95791      1728         
      5670  -36.076773      0.2800796     -35.796693      0.029597591    309.54144      1034.2407      1728         
      5680  -36.157415      0.34305684    -35.814358      0.029597591    379.14332      2030.081       1728         
      5690  -36.348238      0.51266518    -35.835573      0.029597591    566.59292      509.64282      1728         
      5700  -36.337453      0.45931229    -35.878141      0.029597591    507.62779     -1014.4868      1728         
      5710  -36.330899      0.41980665    -35.911092      0.029597591    463.96651      542.01243      1728         
      5720  -36.246048      0.2839304     -35.962117      0.029597591    313.79731     -1430.4271      1728         
      5730  -36.220777      0.22866346    -35.992114      0.029597591    252.71678     -364.85605      1728         
      5740  -36.251576      0.23288231    -36.018693      0.029597591    257.37942      55.944715      1728         
      5750  -36.258726      0.21857402    -36.040152      0.029597591    241.56603     -1296.8129      1728         
      5760  -36.323408      0.26258129    -36.060827      0.029597591    290.20247      106.13658      1728         
      5770  -36.33792       0.2664983     -36.071422      0.029597591    294.53151      44.079342      1728         
      5780  -36.336649      0.24626789    -36.090381      0.029597591    272.17304     -290.22539      1728         
      5790  -36.283025      0.1800798     -36.102945      0.029597591    199.02256      1646.6636      1728         
      5800  -36.336418      0.22300623    -36.113412      0.029597591    246.46447      875.62518      1728         
      5810  -36.384141      0.2666722     -36.117469      0.029597591    294.7237      -142.373        1728         
      5820  -36.418195      0.28634356    -36.131852      0.029597591    316.46431      284.98572      1728         
      5830  -36.397324      0.2599697     -36.137354      0.029597591    287.31616     -683.49365      1728         
      5840  -36.38009       0.23567649    -36.144413      0.029597591    260.46753     -433.94158      1728         
      5850  -36.332534      0.17961551    -36.152919      0.029597591    198.50943      406.74158      1728         
      5860  -36.336676      0.18241141    -36.154264      0.029597591    201.59944     -843.30366      1728         
      5870  -36.350093      0.19156961    -36.158523      0.029597591    211.721       -202.70137      1728         
      5880  -36.336609      0.17556468    -36.161045      0.029597591    194.0325       478.93055      1728         
      5890  -36.332896      0.1728594     -36.160037      0.029597591    191.04264     -1104.1701      1728         
      5900  -36.375651      0.21745638    -36.158195      0.029597591    240.33082      302.73352      1728         
      5910  -36.370117      0.21791092    -36.152206      0.029597591    240.83318      474.82576      1728         
      5920  -36.353331      0.20244995    -36.150881      0.029597591    223.74586      191.64128      1728         
      5930  -36.398758      0.25073055    -36.148028      0.029597591    277.10514      968.03583      1728         
      5940  -36.462068      0.31799776    -36.14407       0.029597591    351.44824      246.64281      1728         
      5950  -36.421746      0.28134737    -36.140398      0.029597591    310.94257     -1107.7272      1728         
      5960  -36.361495      0.23273879    -36.128756      0.029597591    257.22081      646.33263      1728         
      5970  -36.356954      0.23288359    -36.12407       0.029597591    257.38083     -737.60682      1728         
      5980  -36.363567      0.24490315    -36.118664      0.029597591    270.66475     -379.02138      1728         
      5990  -36.334431      0.22421551    -36.110216      0.029597591    247.80095      258.22351      1728         
      6000  -36.337653      0.23357895    -36.104074      0.029597591    258.14935     -90.660982      1728         
      6010  -36.375943      0.28420933    -36.091733      0.029597591    314.10558      229.41855      1728         
      6020  -36.382435      0.30041727    -36.082018      0.029597591    332.01845      1033.7125      1728         
      6030  -36.383721      0.31365738    -36.070064      0.029597591    346.6513      -863.94027      1728         
      6040  -36.4469        0.38880486    -36.058096      0.029597591    429.70361      211.09971      1728         
      6050  -36.40385       0.3568629     -36.046987      0.029597591    394.40165     -139.46882      1728         
      6060  -36.325046      0.29028069    -36.034766      0.029597591    320.81559     -500.29561      1728         
      6070  -36.326876      0.29860535    -36.02827       0.029597591    330.01593      572.04233      1728         
      6080  -36.339383      0.31703461    -36.022349      0.029597591    350.38379      273.16297      1728         
      6090  -36.351726      0.33541258    -36.016314      0.029597591    370.69495     -556.16039      1728         
      6100  -36.375607      0.36521518    -36.010392      0.029597591    403.63251      559.68987      1728         
      6110  -36.380727      0.37905298    -36.001674      0.029597591    418.92593     -600.27671      1728         
      6120  -36.41934       0.41701948    -36.002321      0.029597591    460.88615     -391.33681      1728         
      6130  -36.369908      0.36435952    -36.005549      0.029597591    402.68684      825.46133      1728         
      6140  -36.305944      0.29374929    -36.012195      0.029597591    324.64906     -73.063024      1728         
      6150  -36.34314       0.32234846    -36.020791      0.029597591    356.2566       316.38841      1728         
      6160  -36.312486      0.28689497    -36.025591      0.029597591    317.07372      390.82382      1728         
      6170  -36.302086      0.2664885     -36.035598      0.029597591    294.52068     -744.40414      1728         
      6180  -36.375593      0.32733627    -36.048257      0.029597591    361.76909     -110.33565      1728         
      6190  -36.372475      0.30787238    -36.064603      0.029597591    340.25777      361.40392      1728         
      6200  -36.355369      0.27351029    -36.081859      0.029597591    302.2811      -725.15316      1728         
      6210  -36.383193      0.28770515    -36.095488      0.029597591    317.96913      333.54569      1728         
      6220  -36.346102      0.23153429    -36.114567      0.029597591    255.88961     -413.57226      1728         
      6230  -36.337638      0.2058724     -36.131766      0.029597591    227.52832      51.376579      1728         
      6240  -36.349519      0.20102261    -36.148496      0.029597591    222.16837      710.01645      1728         
      6250  -36.302625      0.14092015    -36.161705      0.029597591    155.74368      390.82069      1728         
      6260  -36.323197      0.15703326    -36.166163      0.029597591    173.55174     -178.05468      1728         
      6270  -36.36424       0.18928206    -36.174958      0.029597591    209.19282      437.23482      1728         
      6280  -36.342134      0.15938995    -36.182745      0.029597591    176.15633     -1012.5418      1728         
      6290  -36.373698      0.18465987    -36.189038      0.029597591    204.08442      101.27678      1728         
      6300  -36.401667      0.20578824    -36.195879      0.029597591    227.4353      -74.678484      1728         
      6310  -36.356017      0.16059143    -36.195425      0.029597591    177.4842      -313.42322      1728         
      6320  -36.394103      0.19714679    -36.196956      0.029597591    217.88485     -28.382341      1728         
      6330  -36.404452      0.20484235    -36.19961       0.029597591    226.38992      250.90202      1728         
      6340  -36.332257      0.1299131     -36.202344      0.029597591    143.57879     -132.65209      1728         
      6350  -36.331664      0.12717563    -36.204489      0.029597591    140.55335      1148.4691      1728         
      6360  -36.327182      0.12873115    -36.198451      0.029597591    142.2725       30.118191      1728         
      6370  -36.310464      0.11453281    -36.195931      0.029597591    126.58063      13.736034      1728         
      6380  -36.33634       0.14801443    -36.188325      0.029597591    163.5842       451.46339      1728         
      6390  -36.32054       0.14350361    -36.177036      0.029597591    158.59889     -392.06542      1728         
      6400  -36.302822      0.13128661    -36.171535      0.029597591    145.09677     -452.92047      1728         
      6410  -36.283568      0.12600913    -36.157559      0.029597591    139.26415     -116.41094      1728         
      6420  -36.256394      0.10967352    -36.146721      0.029597591    121.21019     -1011.7469      1728         
[...]
    148410  -35.082941      0.31939758    -34.763543      0.029597591    352.99532      731.13779      1728         
    148420  -35.0525        0.28436256    -34.768137      0.029597591    314.27493     -499.74361      1728         
    148430  -35.10642       0.33131043    -34.77511       0.029597591    366.16129      484.35361      1728         
    148440  -35.083864      0.29914502    -34.784719      0.029597591    330.61236      485.50545      1728         
    148450  -35.071343      0.27665513    -34.794688      0.029597591    305.75675     -84.608332      1728         
    148460  -35.086676      0.28382781    -34.802848      0.029597591    313.68393      1082.8932      1728         
    148470  -35.06          0.24286186    -34.817138      0.029597591    268.40874     -141.59094      1728         
    148480  -35.079199      0.24745655    -34.831743      0.029597591    273.48674      529.82249      1728         
    148490  -35.089007      0.2413612     -34.847646      0.029597591    266.75021      453.73475      1728         
    148500  -35.055392      0.19276463    -34.862627      0.029597591    213.04173      33.395127      1728         
    148510  -35.075073      0.20416178    -34.870911      0.029597591    225.63775      433.52794      1728         
    148520  -35.091524      0.2068233     -34.884701      0.029597591    228.57924      757.12798      1728         
    148530  -35.053453      0.15739764    -34.896055      0.029597591    173.95445     -232.32449      1728         
    148540  -35.07461       0.16951232    -34.905097      0.029597591    187.34348      1060.2329      1728         
    148550  -35.075498      0.16182411    -34.913674      0.029597591    178.84654     -414.04616      1728         
    148560  -35.053961      0.13948442    -34.914476      0.029597591    154.15692      495.36111      1728         
    148570  -35.068533      0.15013605    -34.918397      0.029597591    165.92901     -211.59644      1728         
    148580  -35.069187      0.14737215    -34.921815      0.029597591    162.87437     -599.40942      1728         
    148590  -35.056431      0.13341208    -34.923019      0.029597591    147.44582     -637.18216      1728         
    148600  -35.103693      0.17937723    -34.924316      0.029597591    198.24609      37.543474      1728         
    148610  -35.084264      0.16497799    -34.919286      0.029597591    182.33218     -710.22623      1728         
    148620  -35.061697      0.14361839    -34.918079      0.029597591    158.72575      1380.1917      1728         
    148630  -35.077941      0.16301399    -34.914927      0.029597591    180.16159     -239.32416      1728         
    148640  -35.085719      0.17572531    -34.909994      0.029597591    194.21002      744.25383      1728         
    148650  -35.047509      0.14363008    -34.903879      0.029597591    158.73867      516.28497      1728         
    148660  -35.056687      0.16597621    -34.890711      0.029597591    183.4354       428.25524      1728         
    148670  -35.04565       0.16571338    -34.879936      0.029597591    183.14493      812.16585      1728         
    148680  -35.049992      0.18254497    -34.867447      0.029597591    201.74705      1187.1581      1728         
    148690  -35.0459        0.19297533    -34.852925      0.029597591    213.27459      32.582036      1728         
    148700  -35.027349      0.19172431    -34.835625      0.029597591    211.89197      1148.7998      1728         
    148710  -35.018837      0.20851388    -34.810323      0.029597591    230.44765     -1327.2836      1728         
    148720  -35.073666      0.28498488    -34.788682      0.029597591    314.96271     -295.33253      1728         
    148730  -35.038278      0.27095804    -34.76732       0.029597591    299.46037      410.82701      1728         
    148740  -35.044216      0.29625486    -34.747962      0.029597591    327.41819      386.63364      1728         
    148750  -35.031407      0.30143253    -34.729974      0.029597591    333.1405       1199.2206      1728         
    148760  -35.006568      0.29647645    -34.710092      0.029597591    327.66309      840.4466       1728         
    148770  -34.989875      0.29244062    -34.697435      0.029597591    323.20273     -217.86082      1728         
    148780  -35.011804      0.32526792    -34.686536      0.029597591    359.48317      644.54829      1728         
    148790  -34.971416      0.29316904    -34.678246      0.029597591    324.00777     -881.97178      1728         
    148800  -35.032672      0.36096393    -34.671708      0.029597591    398.93407     -594.85483      1728         
    148810  -35.028404      0.3662345     -34.662169      0.029597591    404.75906      6.2090064      1728         
    148820  -35.004605      0.34080839    -34.663797      0.029597591    376.65835      186.34605      1728         
    148830  -35.007433      0.34252536    -34.664908      0.029597591    378.55593      1886.9888      1728         
    148840  -35.015363      0.34907459    -34.666288      0.029597591    385.79408      992.13718      1728         
    148850  -34.954691      0.2867589     -34.667932      0.029597591    316.92334      573.15203      1728         
    148860  -34.978664      0.31284115    -34.665823      0.029597591    345.74921      1336.3418      1728         
    148870  -34.978067      0.30819841    -34.669868      0.029597591    340.6181       881.80785      1728         
    148880  -34.98815       0.31425303    -34.673897      0.029597591    347.3096       1165.3304      1728         
    148890  -35.020388      0.34236626    -34.678021      0.029597591    378.38009      2143.27        1728         
    148900  -35.02048       0.33214221    -34.688338      0.029597591    367.08057     -861.87101      1728         
    148910  -35.003707      0.30967495    -34.694032      0.029597591    342.24995      289.96865      1728         
    148920  -35.024386      0.32197888    -34.702407      0.029597591    355.84814     -684.02638      1728         
    148930  -34.991543      0.28041893    -34.711124      0.029597591    309.91646     -32.096244      1728         
    148940  -34.979403      0.26025055    -34.719152      0.029597591    287.62656      813.73486      1728         
    148950  -35.02053       0.2920237     -34.728507      0.029597591    322.74195      667.18743      1728         
    148960  -35.031014      0.29864351    -34.732371      0.029597591    330.0581       747.01645      1728         
    148970  -35.048781      0.30276305    -34.746018      0.029597591    334.61098      1222.5821      1728         
    148980  -35.046093      0.28517897    -34.760914      0.029597591    315.17722     -1515.2772      1728         
    148990  -35.031279      0.25786023    -34.773419      0.029597591    284.98479      240.45775      1728         
    149000  -35.016157      0.23491452    -34.781242      0.029597591    259.6254       283.85827      1728         
    149010  -35.058907      0.27336551    -34.785541      0.029597591    302.12109      766.52972      1728         
    149020  -35.049762      0.2519266     -34.797835      0.029597591    278.427        956.65199      1728         
    149030  -35.061888      0.25001672    -34.811871      0.029597591    276.31621     -42.18007       1728         
    149040  -35.08215       0.25816369    -34.823986      0.029597591    285.32017     -822.21988      1728         
    149050  -35.060093      0.22563534    -34.834457      0.029597591    249.37013      536.54748      1728         
    149060  -35.02101       0.18376621    -34.837244      0.029597591    203.09675     -306.71208      1728         
    149070  -35.079188      0.23329645    -34.845892      0.029597591    257.83713      1102.552       1728         
    149080  -35.061226      0.20651634    -34.85471       0.029597591    228.23999      212.2521       1728         
    149090  -35.047314      0.18558638    -34.861727      0.029597591    205.10838      383.4358       1728         
    149100  -35.072806      0.20417147    -34.868634      0.029597591    225.64847      859.18258      1728         
    149110  -35.076751      0.20608554    -34.870665      0.029597591    227.76388      604.42444      1728         
    149120  -35.068323      0.19172686    -34.876596      0.029597591    211.89479      577.76241      1728         
    149130  -35.107804      0.22358164    -34.884222      0.029597591    247.10041      636.11595      1728         
    149140  -35.078204      0.18696186    -34.891242      0.029597591    206.62855     -381.40775      1728         
    149150  -35.090052      0.19199255    -34.898059      0.029597591    212.18843      902.24285      1728         
    149160  -35.109852      0.2091528     -34.900699      0.029597591    231.15378      344.72507      1728         
    149170  -35.112236      0.20214941    -34.910087      0.029597591    223.4137      -217.99594      1728         
    149180  -35.084387      0.16541699    -34.91897       0.029597591    182.81736      534.39312      1728         
    149190  -35.111455      0.18274074    -34.928715      0.029597591    201.96341     -352.54616      1728         
    149200  -35.107724      0.16942897    -34.938295      0.029597591    187.25136      229.65611      1728         
    149210  -35.104503      0.16224836    -34.942255      0.029597591    179.31542      593.04638      1728         
    149220  -35.105664      0.1541105     -34.951553      0.029597591    170.32153     -81.091111      1728         
    149230  -35.11819       0.15739327    -34.960797      0.029597591    173.94961      579.80601      1728         
    149240  -35.11478       0.14534355    -34.969436      0.029597591    160.63238     -6.5022296      1728         
    149250  -35.120833      0.1435239     -34.977309      0.029597591    158.62132     -1006.4798      1728         
    149260  -35.091997      0.11578923    -34.976207      0.029597591    127.96921      966.40269      1728         
    149270  -35.098949      0.11921664    -34.979733      0.029597591    131.75715      108.05333      1728         
    149280  -35.118297      0.13590549    -34.982392      0.029597591    150.20152      840.25912      1728         
    149290  -35.111648      0.12793026    -34.983717      0.029597591    141.38736      748.5254       1728         
    149300  -35.10426       0.11981636    -34.984444      0.029597591    132.41996     -132.55353      1728         
    149310  -35.1251        0.14661869    -34.978482      0.029597591    162.04165      187.20699      1728         
    149320  -35.109944      0.13436256    -34.975581      0.029597591    148.49629      361.71784      1728         
    149330  -35.106995      0.13543112    -34.971564      0.029597591    149.67725     -232.33679      1728         
    149340  -35.122715      0.15757343    -34.965141      0.029597591    174.14872      665.10141      1728         
    149350  -35.10575       0.1490702     -34.95668       0.029597591    164.75104     -526.17092      1728         
    149360  -35.106562      0.16552611    -34.941036      0.029597591    182.93795      739.17319      1728         
    149370  -35.131297      0.20410887    -34.927188      0.029597591    225.57928      468.11392      1728         
    149380  -35.103485      0.1929068     -34.910578      0.029597591    213.19885     -85.724907      1728         
    149390  -35.106666      0.21335232    -34.893314      0.029597591    235.79505      298.07549      1728         
    149400  -35.138227      0.26563655    -34.87259       0.029597591    293.57911      257.68703      1728         
    149410  -35.10418       0.2579406     -34.846239      0.029597591    285.07361     -226.48022      1728         
    149420  -35.100635      0.27446964    -34.826166      0.029597591    303.34137      931.459        1728         
    149430  -35.118992      0.31283424    -34.806158      0.029597591    345.74157     -479.41998      1728         
    149440  -35.111704      0.32292349    -34.788781      0.029597591    356.89211      599.35971      1728         
    149450  -35.103908      0.33091762    -34.77299       0.029597591    365.72716      183.4758       1728         
    149460  -35.113446      0.35814177    -34.755304      0.029597591    395.81504     -131.28891      1728         
    149470  -35.083257      0.33695076    -34.746307      0.029597591    372.39493      793.21124      1728         
    149480  -35.109264      0.37106102    -34.738203      0.029597591    410.09328      173.03868      1728         
    149490  -35.102694      0.36851495    -34.734179      0.029597591    407.27939     -402.1241       1728         
    149500  -35.077542      0.34341849    -34.734123      0.029597591    379.543        1350.5216      1728         
    149510  -35.087864      0.36230672    -34.725557      0.029597591    400.41811     -1075.6605      1728         
    149520  -35.132095      0.39993577    -34.732159      0.029597591    442.0054       465.75705      1728         
    149530  -35.079695      0.34177206    -34.737923      0.029597591    377.72339      745.47519      1728         
    149540  -35.093459      0.34891077    -34.744548      0.029597591    385.61302     -336.49661      1728         
    149550  -35.104952      0.35124218    -34.75371       0.029597591    388.18968      435.77382      1728         
    149560  -35.098033      0.33791879    -34.760115      0.029597591    373.46479      298.35363      1728         
    149570  -35.088072      0.31658084    -34.771491      0.029597591    349.88228     -53.704458      1728         
    149580  -35.102579      0.31897002    -34.783609      0.029597591    352.52278      648.55443      1728         
    149590  -35.060812      0.26314184    -34.79767       0.029597591    290.82198      462.58637      1728         
    149600  -35.086141      0.27830561    -34.807835      0.029597591    307.58084      474.10325      1728         
    149610  -35.066534      0.25351698    -34.813017      0.029597591    280.18468      606.51728      1728         
    149620  -35.044433      0.22390009    -34.820533      0.029597591    247.45236     -1021.4664      1728         
    149630  -35.081474      0.25212585    -34.829348      0.029597591    278.64721      73.065927      1728         
    149640  -35.10836       0.26820959    -34.840151      0.029597591    296.42281      47.585382      1728         
    149650  -35.060091      0.21088681    -34.849204      0.029597591    233.0702       540.96973      1728         
    149660  -35.068041      0.21791846    -34.850122      0.029597591    240.84151      875.46286      1728         
    149670  -35.052444      0.19565367    -34.85679       0.029597591    216.23467      792.91538      1728         
    149680  -35.036026      0.17629732    -34.859728      0.029597591    194.8422       536.84654      1728         
    149690  -35.038899      0.17756296    -34.861336      0.029597591    196.24097      185.72677      1728         
    149700  -35.045929      0.18394924    -34.86198       0.029597591    203.29903     -1399.5937      1728         
    149710  -35.043098      0.18650016    -34.856598      0.029597591    206.11829     -315.51839      1728         
    149720  -35.080121      0.22221721    -34.857904      0.029597591    245.59245     -263.19732      1728         
    149730  -35.069018      0.21133638    -34.857681      0.029597591    233.56706      501.90681      1728         
    149740  -35.045654      0.19028949    -34.855364      0.029597591    210.30623      1493.0383      1728         
    149750  -35.034218      0.18401552    -34.850202      0.029597591    203.37229      883.07031      1728         
    149760  -35.031691      0.19266347    -34.839027      0.029597591    212.92992      892.71458      1728         
    149770  -35.023502      0.19450608    -34.828995      0.029597591    214.96636      1311.8131      1728         
    149780  -35.015828      0.20093       -34.814898      0.029597591    222.06602      214.56769      1728         
    149790  -35.021335      0.22757952    -34.793755      0.029597591    251.51883      1648.3842      1728         
    149800  -35.048379      0.28328846    -34.765091      0.029597591    313.08785      1042.2078      1728         
    149810  -35.058954      0.33666041    -34.722293      0.029597591    372.07404      364.77549      1728         
    149820  -35.029664      0.34825813    -34.681406      0.029597591    384.89173     -30.007735      1728         
    149830  -35.032608      0.39445487    -34.638153      0.029597591    435.94796     -1171.7711      1728         
    149840  -35.017975      0.41992835    -34.598046      0.029597591    464.10101     -143.53635      1728         
    149850  -35.008157      0.44645309    -34.561704      0.029597591    493.41591      1833.7441      1728         
    149860  -35.017475      0.48451778    -34.532957      0.029597591    535.48466      13.188969      1728         
    149870  -35.065527      0.54883995    -34.516687      0.029597591    606.57295      1173.759       1728         
    149880  -35.038947      0.52539066    -34.513556      0.029597591    580.65701     -420.17594      1728         
    149890  -35.061782      0.54462262    -34.517159      0.029597591    601.912       -552.12999      1728         
    149900  -35.039502      0.50818069    -34.531321      0.029597591    561.6367       599.1451       1728         
    149910  -35.052915      0.50315651    -34.549758      0.029597591    556.08402      157.42541      1728         
    149920  -35.037443      0.46081104    -34.576632      0.029597591    509.28419      729.18163      1728         
    149930  -35.015963      0.41123666    -34.604727      0.029597591    454.49504      1257.9071      1728         
    149940  -34.996655      0.36965844    -34.626997      0.029597591    408.54316     -1361.8293      1728         
    149950  -35.054978      0.40019467    -34.654783      0.029597591    442.29153     -199.52265      1728         
    149960  -35.049031      0.36842926    -34.680602      0.029597591    407.18468      673.01569      1728         
    149970  -35.032588      0.3259452     -34.706642      0.029597591    360.23169      756.07318      1728         
    149980  -35.000674      0.27644285    -34.724231      0.029597591    305.52214      1012.55        1728         
    149990  -35.003934      0.26395578    -34.739978      0.029597591    291.72154     -138.35269      1728         
    150000  -35.009755      0.25702592    -34.752729      0.029597591    284.06272      133.88637      1728         
Loop time of 686.934 on 1 procs for 150000 steps with 8 atoms

Performance: 9.433 ns/day, 2.544 hours/ns, 218.362 timesteps/s, 1.747 katom-step/s
110.0% CPU use with 1 MPI tasks x 1 OpenMP threads

MPI task timing breakdown:
Section |  min time  |  avg time  |  max time  |%varavg| %total
---------------------------------------------------------------
Pair    | 672.97     | 672.97     | 672.97     |   0.0 | 97.97
Neigh   | 0.017084   | 0.017084   | 0.017084   |   0.0 |  0.00
Comm    | 0.34038    | 0.34038    | 0.34038    |   0.0 |  0.05
Output  | 1.0555     | 1.0555     | 1.0555     |   0.0 |  0.15
Modify  | 12.33      | 12.33      | 12.33      |   0.0 |  1.79
Other   |            | 0.2254     |            |       |  0.03

Nlocal:              8 ave           8 max           8 min
Histogram: 1 0 0 0 0 0 0 0 0 0
Nghost:             76 ave          76 max          76 min
Histogram: 1 0 0 0 0 0 0 0 0 0
Neighs:              0 ave           0 max           0 min
Histogram: 1 0 0 0 0 0 0 0 0 0
FullNghs:           62 ave          62 max          62 min
Histogram: 1 0 0 0 0 0 0 0 0 0

Total # of neighbors = 62
Ave neighs/atom = 7.75
Neighbor list builds = 1065
Dangerous builds = 0
#
Total wall time: 0:11:28
