ITEM: TIMESTEP
0
ITEM: NUMBER OF ATOMS
8
ITEM: BOX BOUNDS xy xz yz pp pp pp
0.0000000000000000e+00 1.2000000000000000e+01 0.0000000000000000e+00
0.0000000000000000e+00 1.2000000000000000e+01 0.0000000000000000e+00
0.0000000000000000e+00 1.2000000000000000e+01 0.0000000000000000e+00
ITEM: ATOMS id type x y z
1 1 5.74046 6.33007 5.41224
2 2 7.13765 6.17173 7.19603
3 2 6.99131 4.6591 6.48592
4 2 5.76199 5.3298 7.42483
5 2 5.30281 7.3409 5.86648
6 2 4.86235 5.64183 4.93919
7 2 6.6291 6.51884 4.57517
8 3 6.45143 5.56858 6.69633
ITEM: TIMESTEP
100
ITEM: NUMBER OF ATOMS
8
ITEM: BOX BOUNDS xy xz yz pp pp pp
0.0000000000000000e+00 1.2000000000000000e+01 0.0000000000000000e+00
0.0000000000000000e+00 1.2000000000000000e+01 0.0000000000000000e+00
0.0000000000000000e+00 1.2000000000000000e+01 0.0000000000000000e+00
ITEM: ATOMS id type x y z
1 1 5.53357 6.24863 5.49841
2 2 7.49768 6.21197 6.63323
3 2 6.94131 4.61876 6.45198
4 2 6.29788 5.61498 7.6085
5 2 5.22957 7.35663 5.99259
6 2 4.61082 5.43857 5.46776
7 2 6.10934 6.23449 4.4674
8 3 6.61094 5.64475 6.6203
ITEM: TIMESTEP
200
ITEM: NUMBER OF ATOMS
8
ITEM: BOX BOUNDS xy xz yz pp pp pp
0.0000000000000000e+00 1.2000000000000000e+01 0.0000000000000000e+00
0.0000000000000000e+00 1.2000000000000000e+01 0.0000000000000000e+00
0.0000000000000000e+00 1.2000000000000000e+01 0.0000000000000000e+00
ITEM: ATOMS id type x y z
1 1 5.30945 6.10028 5.72753
2 2 7.58813 6.26874 6.04068
3 2 7.08216 4.72285 6.33396
4 2 6.84285 5.9444 7.44838
5 2 5.24317 7.33629 5.8079
6 2 4.51921 5.45429 6.42893
7 2 5.63934 5.762 4.53182
8 3 6.76752 5.75825 6.44567
ITEM: TIMESTEP
300
ITEM: NUMBER OF ATOMS
8
ITEM: BOX BOUNDS xy xz yz pp pp pp
0.0000000000000000e+00 1.2000000000000000e+01 0.0000000000000000e+00
0.0000000000000000e+00 1.2000000000000000e+01 0.0000000000000000e+00
0.0000000000000000e+00 1.2000000000000000e+01 0.0000000000000000e+00
ITEM: ATOMS id type x y z
1 1 5.25649 5.94551 6.06125
2 2 7.28992 6.20486 5.3412
3 2 7.12391 4.88312 6.34499
4 2 7.32145 6.39041 6.90248
5 2 4.92079 7.01244 5.73684
6 2 4.83397 5.62503 7.13329
7 2 4.98301 5.14714 5.19015
8 3 6.83994 5.89376 6.18414
ITEM: TIMESTEP
400
ITEM: NUMBER OF ATOMS
8
ITEM: BOX BOUNDS xy xz yz pp pp pp
0.0000000000000000e+00 1.2000000000000000e+01 0.0000000000000000e+00
0.0000000000000000e+00 1.2000000000000000e+01 0.0000000000000000e+00
0.0000000000000000e+00 1.2000000000000000e+01 0.0000000000000000e+00
ITEM: ATOMS id type x y z
1 1 5.31205 5.84309 6.35625
2 2 6.92875 5.82099 4.95356
3 2 7.35959 5.20827 6.4048
4 2 7.27342 6.82844 6.19447
5 2 4.55871 6.81322 5.93891
6 2 5.20043 5.70357 7.606
7 2 4.92499 4.78219 5.90933
8 3 6.8133 5.98036 5.93098
ITEM: TIMESTEP
500
ITEM: NUMBER OF ATOMS
8
ITEM: BOX BOUNDS xy xz yz pp pp pp
0.0000000000000000e+00 1.2000000000000000e+01 0.0000000000000000e+00
0.0000000000000000e+00 1.2000000000000000e+01 0.0000000000000000e+00
0.0000000000000000e+00 1.2000000000000000e+01 0.0000000000000000e+00
ITEM: ATOMS id type x y z
1 1 5.39492 5.7616 6.62072
2 2 6.58429 5.74139 4.76879
3 2 7.47024 5.39941 6.14553
4 2 7.03755 7.00218 5.72087
5 2 4.5115 6.37421 6.09517
6 2 5.665 6.23672 7.6985
7 2 5.33998 4.53571 6.5941
8 3 6.72347 6.03373 5.72583
ITEM: TIMESTEP
600
ITEM: NUMBER OF ATOMS
8
ITEM: BOX BOUNDS xy xz yz pp pp pp
0.0000000000000000e+00 1.2000000000000000e+01 0.0000000000000000e+00
0.0000000000000000e+00 1.2000000000000000e+01 0.0000000000000000e+00
0.0000000000000000e+00 1.2000000000000000e+01 0.0000000000000000e+00
ITEM: ATOMS id type x y z
1 1 5.55376 5.73399 6.85529
2 2 6.36209 5.45261 4.73879
3 2 7.59753 5.86984 5.89753
4 2 6.55171 7.05098 5.26081
5 2 4.4309 5.95301 6.45319
6 2 6.00345 6.46805 7.7179
7 2 5.78884 4.51843 7.02846
8 3 6.59193 6.05336 5.53961
ITEM: TIMESTEP
700
ITEM: NUMBER OF ATOMS
8
ITEM: BOX BOUNDS xy xz yz pp pp pp
0.0000000000000000e+00 1.2000000000000000e+01 0.0000000000000000e+00
0.0000000000000000e+00 1.2000000000000000e+01 0.0000000000000000e+00
0.0000000000000000e+00 1.2000000000000000e+01 0.0000000000000000e+00
ITEM: ATOMS id type x y z
1 1 5.80169 5.73506 7.00412
2 2 6.29776 5.22944 4.80197
3 2 7.46404 6.20578 5.55041
4 2 5.96635 6.91353 5.03298
5 2 4.54216 5.55248 6.90724
6 2 6.17162 6.69526 7.71567
7 2 6.28686 4.70077 7.37871
8 3 6.40109 6.05366 5.40407
ITEM: TIMESTEP
800
ITEM: NUMBER OF ATOMS
8
ITEM: BOX BOUNDS xy xz yz pp pp pp
0.0000000000000000e+00 1.2000000000000000e+01 0.0000000000000000e+00
0.0000000000000000e+00 1.2000000000000000e+01 0.0000000000000000e+00
0.0000000000000000e+00 1.2000000000000000e+01 0.0000000000000000e+00
ITEM: ATOMS id type x y z
1 1 6.06061 5.76551 7.06059
2 2 6.03121 5.14261 4.90023
3 2 7.16162 6.42427 5.16208
4 2 5.44522 6.63649 5.05377
5 2 5.02625 5.26542 7.32195
6 2 6.13139 6.86594 7.50321
7 2 7.03926 5.11323 7.32697
8 3 6.19377 6.01941 5.36899
ITEM: TIMESTEP
900
ITEM: NUMBER OF ATOMS
8
ITEM: BOX BOUNDS xy xz yz pp pp pp
0.0000000000000000e+00 1.2000000000000000e+01 0.0000000000000000e+00
0.0000000000000000e+00 1.2000000000000000e+01 0.0000000000000000e+00
0.0000000000000000e+00 1.2000000000000000e+01 0.0000000000000000e+00
ITEM: ATOMS id type x y z
1 1 6.36308 5.87154 6.97912
2 2 6.14502 5.07524 4.98717
3 2 6.53636 6.68735 4.97893
4 2 4.99429 6.22921 5.37776
5 2 5.5016 5.02592 7.32216
6 2 6.11546 7.02061 7.40444
7 2 7.62417 5.5379 6.92459
8 3 5.95458 5.92845 5.45135
ITEM: TIMESTEP
1000
ITEM: NUMBER OF ATOMS
8
ITEM: BOX BOUNDS xy xz yz pp pp pp
0.0000000000000000e+00 1.2000000000000000e+01 0.0000000000000000e+00
0.0000000000000000e+00 1.2000000000000000e+01 0.0000000000000000e+00
0.0000000000000000e+00 1.2000000000000000e+01 0.0000000000000000e+00
ITEM: ATOMS id type x y z
1 1 6.65667 5.98126 6.89125
2 2 6.02133 5.07362 4.97831
3 2 5.65877 6.71014 4.87037
4 2 4.79625 5.61102 5.83495
5 2 6.58092 4.91717 7.50765
6 2 6.19796 6.96042 7.44446
7 2 7.76161 6.12512 6.5626
8 3 5.72096 5.85657 5.50461
ITEM: TIMESTEP
1100
ITEM: NUMBER OF ATOMS
8
ITEM: BOX BOUNDS xy xz yz pp pp pp
0.0000000000000000e+00 1.2000000000000000e+01 0.0000000000000000e+00
0.0000000000000000e+00 1.2000000000000000e+01 0.0000000000000000e+00
0.0000000000000000e+00 1.2000000000000000e+01 0.0000000000000000e+00
ITEM: ATOMS id type x y z
1 1 6.88522 6.14245 6.71625
2 2 5.80029 5.06071 4.94693
3 2 5.12834 6.59886 5.17353
4 2 4.78459 5.28958 6.19046
5 2 7.17255 5.01806 7.07523
6 2 6.42443 6.78635 7.64397
7 2 7.8048 6.70918 6.08161
8 3 5.53763 5.72757 5.6458
ITEM: TIMESTEP
1200
ITEM: NUMBER OF ATOMS
8
ITEM: BOX BOUNDS xy xz yz pp pp pp
0.0000000000000000e+00 1.2000000000000000e+01 0.0000000000000000e+00
0.0000000000000000e+00 1.2000000000000000e+01 0.0000000000000000e+00
0.0000000000000000e+00 1.2000000000000000e+01 0.0000000000000000e+00
ITEM: ATOMS id type x y z
1 1 6.94968 6.2028 6.50877
2 2 5.68477 5.17661 4.96208
3 2 4.69674 6.36956 5.58013
4 2 5.09861 5.02173 6.50802
5 2 7.52041 5.14529 6.73248
6 2 6.5522 6.73679 7.53019
7 2 7.37615 6.97407 5.62209
8 3 5.5012 5.68377 5.81848
ITEM: TIMESTEP
1300
ITEM: NUMBER OF ATOMS
8
ITEM: BOX BOUNDS xy xz yz pp pp pp
0.0000000000000000e+00 1.2000000000000000e+01 0.0000000000000000e+00
0.0000000000000000e+00 1.2000000000000000e+01 0.0000000000000000e+00
0.0000000000000000e+00 1.2000000000000000e+01 0.0000000000000000e+00
ITEM: ATOMS id type x y z
1 1 6.89725 6.28201 6.28912
2 2 5.41039 5.26277 5.04156
3 2 4.66344 6.26354 6.16021
4 2 5.35691 4.78625 6.57505
5 2 7.63432 5.2987 6.15699
6 2 6.83533 6.72778 7.41982
7 2 7.17376 7.101 5.52564
8 3 5.53127 5.62153 5.9919
ITEM: TIMESTEP
1400
ITEM: NUMBER OF ATOMS
8
ITEM: BOX BOUNDS xy xz yz pp pp pp
0.0000000000000000e+00 1.2000000000000000e+01 0.0000000000000000e+00
0.0000000000000000e+00 1.2000000000000000e+01 0.0000000000000000e+00
0.0000000000000000e+00 1.2000000000000000e+01 0.0000000000000000e+00
ITEM: ATOMS id type x y z
1 1 6.97034 6.38693 6.05485
2 2 5.12995 5.12823 5.30623
3 2 4.59087 6.03809 6.57407
4 2 5.60293 4.71285 6.78961
5 2 7.80623 5.74854 5.40567
6 2 7.38434 6.58178 7.22485
7 2 6.7187 7.49527 5.44557
8 3 5.46353 5.52168 6.18215
ITEM: TIMESTEP
1500
ITEM: NUMBER OF ATOMS
8
ITEM: BOX BOUNDS xy xz yz pp pp pp
0.0000000000000000e+00 1.2000000000000000e+01 0.0000000000000000e+00
0.0000000000000000e+00 1.2000000000000000e+01 0.0000000000000000e+00
0.0000000000000000e+00 1.2000000000000000e+01 0.0000000000000000e+00
ITEM: ATOMS id type x y z
1 1 6.87883 6.52527 5.75137
2 2 4.79468 5.29618 5.77668
3 2 5.14191 5.86343 7.2986
4 2 5.85633 4.51847 6.71872
5 2 7.28696 5.78465 4.93213
6 2 7.5948 6.58058 6.68609
7 2 6.27892 7.51538 5.37933
8 3 5.55409 5.42539 6.413
ITEM: TIMESTEP
1600
ITEM: NUMBER OF ATOMS
8
ITEM: BOX BOUNDS xy xz yz pp pp pp
0.0000000000000000e+00 1.2000000000000000e+01 0.0000000000000000e+00
0.0000000000000000e+00 1.2000000000000000e+01 0.0000000000000000e+00
0.0000000000000000e+00 1.2000000000000000e+01 0.0000000000000000e+00
ITEM: ATOMS id type x y z
1 1 6.62662 6.46147 5.57379
2 2 4.77788 5.4144 6.34033
3 2 5.83441 5.77411 7.57511
4 2 6.10355 4.52851 6.46173
5 2 6.69388 5.94112 4.42861
6 2 7.66555 6.69736 6.23841
7 2 5.88717 7.41651 5.59386
8 3 5.74802 5.45938 6.56096
ITEM: TIMESTEP
1700
ITEM: NUMBER OF ATOMS
8
ITEM: BOX BOUNDS xy xz yz pp pp pp
0.0000000000000000e+00 1.2000000000000000e+01 0.0000000000000000e+00
0.0000000000000000e+00 1.2000000000000000e+01 0.0000000000000000e+00
0.0000000000000000e+00 1.2000000000000000e+01 0.0000000000000000e+00
ITEM: ATOMS id type x y z
1 1 6.36664 6.43935 5.50099
2 2 4.95689 5.26227 6.56164
3 2 6.10037 6.02656 7.53421
4 2 6.47397 4.60116 6.68747
5 2 5.79408 6.12103 4.45719
6 2 7.60076 6.39911 5.34979
7 2 6.1338 7.62961 5.7691
8 3 5.94162 5.45731 6.63702
ITEM: TIMESTEP
1800
ITEM: NUMBER OF ATOMS
8
ITEM: BOX BOUNDS xy xz yz pp pp pp
0.0000000000000000e+00 1.2000000000000000e+01 0.0000000000000000e+00
0.0000000000000000e+00 1.2000000000000000e+01 0.0000000000000000e+00
0.0000000000000000e+00 1.2000000000000000e+01 0.0000000000000000e+00
ITEM: ATOMS id type x y z
1 1 6.1635 6.47903 5.30981
2 2 5.19592 5.56363 7.20899
3 2 6.9003 5.76443 7.44663
4 2 6.2909 4.48919 6.50031
5 2 5.41867 5.99362 4.52879
6 2 7.28272 6.39469 4.9398
7 2 5.77 7.5058 5.8385
8 3 6.11271 5.45016 6.77711
ITEM: TIMESTEP
1900
ITEM: NUMBER OF ATOMS
8
ITEM: BOX BOUNDS xy xz yz pp pp pp
0.0000000000000000e+00 1.2000000000000000e+01 0.0000000000000000e+00
0.0000000000000000e+00 1.2000000000000000e+01 0.0000000000000000e+00
0.0000000000000000e+00 1.2000000000000000e+01 0.0000000000000000e+00
ITEM: ATOMS id type x y z
1 1 5.9121 6.44178 5.29247
2 2 5.61246 5.7294 7.48072
3 2 7.26205 5.86463 7.14011
4 2 6.30328 4.47424 6.62886
5 2 4.8299 5.85613 4.97577
6 2 6.97096 6.23354 4.62976
7 2 5.72717 7.55198 5.75476
8 3 6.31755 5.479 6.77999
ITEM: TIMESTEP
2000
ITEM: NUMBER OF ATOMS
8
ITEM: BOX BOUNDS xy xz yz pp pp pp
0.0000000000000000e+00 1.2000000000000000e+01 0.0000000000000000e+00
0.0000000000000000e+00 1.2000000000000000e+01 0.0000000000000000e+00
0.0000000000000000e+00 1.2000000000000000e+01 0.0000000000000000e+00
ITEM: ATOMS id type x y z
1 1 5.73475 6.29334 5.42741
2 2 5.84655 5.67214 7.50961
3 2 7.44901 5.96233 6.89219
4 2 6.59262 4.61056 6.49255
5 2 4.57964 5.98547 5.52071
6 2 6.29844 5.9681 4.41742
7 2 5.95023 7.46585 5.56353
8 3 6.4536 5.59675 6.69117
ITEM: TIMESTEP
2100
ITEM: NUMBER OF ATOMS
8
ITEM: BOX BOUNDS xy xz yz pp pp pp
0.0000000000000000e+00 1.2000000000000000e+01 0.0000000000000000e+00
0.0000000000000000e+00 1.2000000000000000e+01 0.0000000000000000e+00
0.0000000000000000e+00 1.2000000000000000e+01 0.0000000000000000e+00
ITEM: ATOMS id type x y z
1 1 5.5947 6.22786 5.54259
2 2 6.47467 6.10797 7.51537
3 2 7.62663 5.75479 6.39273
4 2 6.40079 4.68266 6.74639
5 2 4.52056 5.73246 5.81664
6 2 5.89639 5.7515 4.46655
7 2 5.59964 7.5035 5.5566
8 3 6.57577 5.65667 6.5953
ITEM: TIMESTEP
2200
ITEM: NUMBER OF ATOMS
8
ITEM: BOX BOUNDS xy xz yz pp pp pp
0.0000000000000000e+00 1.2000000000000000e+01 0.0000000000000000e+00
0.0000000000000000e+00 1.2000000000000000e+01 0.0000000000000000e+00
0.0000000000000000e+00 1.2000000000000000e+01 0.0000000000000000e+00
ITEM: ATOMS id type x y z
1 1 5.28827 6.15506 5.59439
2 2 6.95858 6.23223 7.39349
3 2 7.75267 5.82904 6.04705
4 2 6.75487 4.77373 6.80862
5 2 4.44124 6.01014 6.50797
6 2 5.28904 5.26936 4.71737
7 2 5.4126 7.3362 5.37331
8 3 6.80571 5.7187 6.53008
ITEM: TIMESTEP
2300
ITEM: NUMBER OF ATOMS
8
ITEM: BOX BOUNDS xy xz yz pp pp pp
0.0000000000000000e+00 1.2000000000000000e+01 0.0000000000000000e+00
0.0000000000000000e+00 1.2000000000000000e+01 0.0000000000000000e+00
0.0000000000000000e+00 1.2000000000000000e+01 0.0000000000000000e+00
ITEM: ATOMS id type x y z
1 1 5.08741 6.0173 5.88499
2 2 7.31054 6.55149 6.9356
3 2 7.59009 5.73338 5.46911
4 2 7.13169 4.98885 6.81181
5 2 4.65018 6.11904 6.99455
6 2 4.93135 4.98136 5.28354
7 2 5.09945 6.96606 5.18618
8 3 6.9532 5.83286 6.31784
ITEM: TIMESTEP
2400
ITEM: NUMBER OF ATOMS
8
ITEM: BOX BOUNDS xy xz yz pp pp pp
0.0000000000000000e+00 1.2000000000000000e+01 0.0000000000000000e+00
0.0000000000000000e+00 1.2000000000000000e+01 0.0000000000000000e+00
0.0000000000000000e+00 1.2000000000000000e+01 0.0000000000000000e+00
ITEM: ATOMS id type x y z
1 1 5.20693 5.916 6.14325
2 2 7.29939 6.83757 6.28232
3 2 7.26673 5.59985 5.16966
4 2 7.24275 5.28698 6.83348
5 2 4.86741 6.1422 7.29768
6 2 4.8427 4.80166 5.78694
7 2 4.83818 6.72998 5.20864
8 3 6.88645 5.90686 6.1259
ITEM: TIMESTEP
2500
ITEM: NUMBER OF ATOMS
8
ITEM: BOX BOUNDS xy xz yz pp pp pp
0.0000000000000000e+00 1.2000000000000000e+01 0.0000000000000000e+00
0.0000000000000000e+00 1.2000000000000000e+01 0.0000000000000000e+00
0.0000000000000000e+00 1.2000000000000000e+01 0.0000000000000000e+00
ITEM: ATOMS id type x y z
1 1 5.32727 5.85135 6.27742
2 2 7.09843 6.94655 6.01058
3 2 6.95299 5.5314 5.02721
4 2 7.35745 5.43192 6.67131
5 2 5.09814 6.41449 7.32793
6 2 5.04295 4.68195 6.32679
7 2 4.78958 6.45909 5.38863
8 3 6.79487 5.95194 6.00999
ITEM: TIMESTEP
2600
ITEM: NUMBER OF ATOMS
8
ITEM: BOX BOUNDS xy xz yz pp pp pp
0.0000000000000000e+00 1.2000000000000000e+01 0.0000000000000000e+00
0.0000000000000000e+00 1.2000000000000000e+01 0.0000000000000000e+00
0.0000000000000000e+00 1.2000000000000000e+01 0.0000000000000000e+00
ITEM: ATOMS id type x y z
1 1 5.23452 5.79441 6.48849
2 2 6.92127 7.00564 5.58915
3 2 6.91152 5.37405 4.97228
4 2 7.58877 5.75285 6.49018
5 2 5.14737 6.55482 7.46652
6 2 5.20086 4.57309 6.74329
7 2 4.5837 6.18676 5.5679
8 3 6.86543 5.99716 5.84167
ITEM: TIMESTEP
2700
ITEM: NUMBER OF ATOMS
8
ITEM: BOX BOUNDS xy xz yz pp pp pp
0.0000000000000000e+00 1.2000000000000000e+01 0.0000000000000000e+00
0.0000000000000000e+00 1.2000000000000000e+01 0.0000000000000000e+00
0.0000000000000000e+00 1.2000000000000000e+01 0.0000000000000000e+00
ITEM: ATOMS id type x y z
1 1 5.27541 5.73201 6.77359
2 2 6.66918 6.93552 5.10409
3 2 6.83652 5.28666 4.89802
4 2 7.64775 6.09075 6.17894
5 2 5.37667 6.65583 7.54009
6 2 5.46448 4.61138 7.21723
7 2 4.42127 5.67142 5.84602
8 3 6.82943 6.05928 5.62495
ITEM: TIMESTEP
2800
ITEM: NUMBER OF ATOMS
8
ITEM: BOX BOUNDS xy xz yz pp pp pp
0.0000000000000000e+00 1.2000000000000000e+01 0.0000000000000000e+00
0.0000000000000000e+00 1.2000000000000000e+01 0.0000000000000000e+00
0.0000000000000000e+00 1.2000000000000000e+01 0.0000000000000000e+00
ITEM: ATOMS id type x y z
1 1 5.53519 5.71241 6.91725
2 2 6.17737 6.79545 4.92507
3 2 6.77965 5.18518 4.93462
4 2 7.51776 6.39377 5.73164
5 2 5.43528 6.76294 7.4782
6 2 6.14371 4.89694 7.50882
7 2 4.495 5.29375 6.46216
8 3 6.61953 6.06894 5.49583
ITEM: TIMESTEP
2900
ITEM: NUMBER OF ATOMS
8
ITEM: BOX BOUNDS xy xz yz pp pp pp
0.0000000000000000e+00 1.2000000000000000e+01 0.0000000000000000e+00
0.0000000000000000e+00 1.2000000000000000e+01 0.0000000000000000e+00
0.0000000000000000e+00 1.2000000000000000e+01 0.0000000000000000e+00
ITEM: ATOMS id type x y z
1 1 5.81464 5.73429 6.87914
2 2 5.80375 6.54498 4.83441
3 2 6.69505 5.17831 4.99352
4 2 7.2112 6.5934 5.62437
5 2 5.47455 6.87095 7.34514
6 2 6.75259 5.21902 7.55861
7 2 4.80708 5.10226 6.66559
8 3 6.38999 6.03913 5.52657
ITEM: TIMESTEP
3000
ITEM: NUMBER OF ATOMS
8
ITEM: BOX BOUNDS xy xz yz pp pp pp
0.0000000000000000e+00 1.2000000000000000e+01 0.0000000000000000e+00
0.0000000000000000e+00 1.2000000000000000e+01 0.0000000000000000e+00
0.0000000000000000e+00 1.2000000000000000e+01 0.0000000000000000e+00
ITEM: ATOMS id type x y z
1 1 5.89756 5.75355 6.9739
2 2 5.54273 6.34689 4.81377
3 2 6.75363 5.2203 4.93939
4 2 7.01455 6.75161 5.39647
5 2 5.55729 6.8116 7.43578
6 2 6.96199 5.39187 7.44444
7 2 5.09034 4.8563 7.05488
8 3 6.31344 6.03358 5.44897
ITEM: TIMESTEP
3100
ITEM: NUMBER OF ATOMS
8
ITEM: BOX BOUNDS xy xz yz pp pp pp
0.0000000000000000e+00 1.2000000000000000e+01 0.0000000000000000e+00
0.0000000000000000e+00 1.2000000000000000e+01 0.0000000000000000e+00
0.0000000000000000e+00 1.2000000000000000e+01 0.0000000000000000e+00
ITEM: ATOMS id type x y z
1 1 6.05254 5.76044 7.15622
2 2 5.34458 6.23719 4.72262
3 2 6.70939 5.22237 4.85673
4 2 6.77628 6.84046 5.19262
5 2 5.49118 6.76635 7.50119
6 2 7.20274 5.62896 7.47607
7 2 5.42138 4.68032 7.25478
8 3 6.19209 6.02848 5.31409
ITEM: TIMESTEP
3200
ITEM: NUMBER OF ATOMS
8
ITEM: BOX BOUNDS xy xz yz pp pp pp
0.0000000000000000e+00 1.2000000000000000e+01 0.0000000000000000e+00
0.0000000000000000e+00 1.2000000000000000e+01 0.0000000000000000e+00
0.0000000000000000e+00 1.2000000000000000e+01 0.0000000000000000e+00
ITEM: ATOMS id type x y z
1 1 6.27903 5.79782 7.17377
2 2 5.03109 5.80865 4.99644
3 2 6.59084 5.2698 4.7686
4 2 6.3003 6.90119 4.98543
5 2 5.56955 6.71356 7.66176
6 2 7.48551 6.0929 7.10408
7 2 5.89076 4.68179 7.41016
8 3 6.0229 5.99306 5.30609
ITEM: TIMESTEP
3300
ITEM: NUMBER OF ATOMS
8
ITEM: BOX BOUNDS xy xz yz pp pp pp
0.0000000000000000e+00 1.2000000000000000e+01 0.0000000000000000e+00
0.0000000000000000e+00 1.2000000000000000e+01 0.0000000000000000e+00
0.0000000000000000e+00 1.2000000000000000e+01 0.0000000000000000e+00
ITEM: ATOMS id type x y z
1 1 6.46802 5.90271 6.91032
2 2 4.93762 5.42404 5.45456
3 2 6.60428 5.49863 4.86142
4 2 5.75827 6.85909 5.18226
5 2 5.71133 6.55063 7.57979
6 2 7.58179 6.36182 6.90164
7 2 6.43162 4.75946 7.21896
8 3 5.8659 5.91315 5.48988
ITEM: TIMESTEP
3400
ITEM: NUMBER OF ATOMS
8
ITEM: BOX BOUNDS xy xz yz pp pp pp
0.0000000000000000e+00 1.2000000000000000e+01 0.0000000000000000e+00
0.0000000000000000e+00 1.2000000000000000e+01 0.0000000000000000e+00
0.0000000000000000e+00 1.2000000000000000e+01 0.0000000000000000e+00
ITEM: ATOMS id type x y z
1 1 6.64232 5.98185 6.88954
2 2 4.92426 5.2496 5.79825
3 2 6.24386 5.35017 4.76206
4 2 5.39311 6.7641 5.21945
5 2 5.88646 6.27278 7.80892
6 2 7.53435 6.79971 6.67543
7 2 7.2302 4.83505 7.012
8 3 5.71807 5.86512 5.50037
ITEM: TIMESTEP
3500
ITEM: NUMBER OF ATOMS
8
ITEM: BOX BOUNDS xy xz yz pp pp pp
0.0000000000000000e+00 1.2000000000000000e+01 0.0000000000000000e+00
0.0000000000000000e+00 1.2000000000000000e+01 0.0000000000000000e+00
0.0000000000000000e+00 1.2000000000000000e+01 0.0000000000000000e+00
ITEM: ATOMS id type x y z
1 1 6.8926 6.08418 6.85374
2 2 5.03947 4.90704 5.83109
3 2 5.99186 5.62754 4.62522
4 2 4.87148 6.52108 5.50821
5 2 6.16802 6.34137 7.79291
6 2 7.52411 7.02133 6.41723
7 2 7.40214 4.98621 6.80076
8 3 5.54036 5.77668 5.54947
ITEM: TIMESTEP
3600
ITEM: NUMBER OF ATOMS
8
ITEM: BOX BOUNDS xy xz yz pp pp pp
0.0000000000000000e+00 1.2000000000000000e+01 0.0000000000000000e+00
0.0000000000000000e+00 1.2000000000000000e+01 0.0000000000000000e+00
0.0000000000000000e+00 1.2000000000000000e+01 0.0000000000000000e+00
ITEM: ATOMS id type x y z
1 1 6.92927 6.13789 6.70103
2 2 5.13713 4.8205 6.00881
3 2 5.73361 5.63894 4.65575
4 2 4.76386 6.40382 5.69715
5 2 6.46138 6.19518 7.83065
6 2 7.31227 7.19433 6.22596
7 2 7.62802 5.18437 6.57478
8 3 5.50928 5.73291 5.66602
ITEM: TIMESTEP
3700
ITEM: NUMBER OF ATOMS
8
ITEM: BOX BOUNDS xy xz yz pp pp pp
0.0000000000000000e+00 1.2000000000000000e+01 0.0000000000000000e+00
0.0000000000000000e+00 1.2000000000000000e+01 0.0000000000000000e+00
0.0000000000000000e+00 1.2000000000000000e+01 0.0000000000000000e+00
ITEM: ATOMS id type x y z
1 1 6.8533 6.16094 6.50774
2 2 5.12456 4.83534 6.19989
3 2 5.66374 5.45365 4.82124
4 2 4.81586 6.39096 5.88917
5 2 6.67138 5.98369 7.7174
6 2 7.08232 7.3414 6.22509
7 2 7.81024 5.44918 6.06939
8 3 5.55846 5.71391 5.82019
ITEM: TIMESTEP
3800
ITEM: NUMBER OF ATOMS
8
ITEM: BOX BOUNDS xy xz yz pp pp pp
0.0000000000000000e+00 1.2000000000000000e+01 0.0000000000000000e+00
0.0000000000000000e+00 1.2000000000000000e+01 0.0000000000000000e+00
0.0000000000000000e+00 1.2000000000000000e+01 0.0000000000000000e+00
ITEM: ATOMS id type x y z
1 1 6.97603 6.24654 6.42988
2 2 5.34169 4.58551 5.92993
3 2 5.22639 5.98005 4.95031
4 2 4.72894 5.98681 6.48047
5 2 6.84672 6.33047 7.60159
6 2 7.04379 7.30267 5.88498
7 2 7.79704 5.4673 5.9817
8 3 5.47689 5.63369 5.88691
ITEM: TIMESTEP
3900
ITEM: NUMBER OF ATOMS
8
ITEM: BOX BOUNDS xy xz yz pp pp pp
0.0000000000000000e+00 1.2000000000000000e+01 0.0000000000000000e+00
0.0000000000000000e+00 1.2000000000000000e+01 0.0000000000000000e+00
0.0000000000000000e+00 1.2000000000000000e+01 0.0000000000000000e+00
ITEM: ATOMS id type x y z
1 1 7.13947 6.39082 6.24268
2 2 5.38862 4.46034 6.05604
3 2 4.96932 5.79431 5.10738
4 2 4.74467 5.92301 6.74012
5 2 7.28529 6.16626 7.47042
6 2 6.73938 7.53516 5.97025
7 2 7.85442 5.74881 5.51852
8 3 5.35102 5.52417 6.02891
ITEM: TIMESTEP
4000
ITEM: NUMBER OF ATOMS
8
ITEM: BOX BOUNDS xy xz yz pp pp pp
0.0000000000000000e+00 1.2000000000000000e+01 0.0000000000000000e+00
0.0000000000000000e+00 1.2000000000000000e+01 0.0000000000000000e+00
0.0000000000000000e+00 1.2000000000000000e+01 0.0000000000000000e+00
ITEM: ATOMS id type x y z
1 1 7.00401 6.43997 6.01308
2 2 5.59999 4.45347 6.46096
3 2 4.87504 5.55972 5.34858
4 2 5.01392 5.92207 7.02972
5 2 7.78019 6.05464 6.87384
6 2 6.6322 7.59023 6.18499
7 2 7.39719 6.14736 4.90944
8 3 5.43289 5.47914 6.20997
ITEM: TIMESTEP
4100
ITEM: NUMBER OF ATOMS
8
ITEM: BOX BOUNDS xy xz yz pp pp pp
0.0000000000000000e+00 1.2000000000000000e+01 0.0000000000000000e+00
0.0000000000000000e+00 1.2000000000000000e+01 0.0000000000000000e+00
0.0000000000000000e+00 1.2000000000000000e+01 0.0000000000000000e+00
ITEM: ATOMS id type x y z
1 1 6.75698 6.35524 5.88754
2 2 5.90158 4.52152 6.15219
3 2 4.77084 5.79439 5.84149
4 2 5.43886 5.68096 7.32505
5 2 7.69908 6.04814 6.53521
6 2 6.42058 7.4921 6.06675
7 2 6.90233 6.21237 4.66522
8 3 5.63526 5.54293 6.32265
ITEM: TIMESTEP
4200
ITEM: NUMBER OF ATOMS
8
ITEM: BOX BOUNDS xy xz yz pp pp pp
0.0000000000000000e+00 1.2000000000000000e+01 0.0000000000000000e+00
0.0000000000000000e+00 1.2000000000000000e+01 0.0000000000000000e+00
0.0000000000000000e+00 1.2000000000000000e+01 0.0000000000000000e+00
ITEM: ATOMS id type x y z
1 1 6.80779 6.52237 5.68229
2 2 5.69459 4.46345 6.07801
3 2 4.64355 5.68386 6.28684
4 2 5.73457 5.36813 7.50085
5 2 7.85106 6.09141 6.2025
6 2 6.46105 7.6761 5.97566
7 2 6.61795 6.22158 4.48464
8 3 5.60538 5.4315 6.48509
ITEM: TIMESTEP
4300
ITEM: NUMBER OF ATOMS
8
ITEM: BOX BOUNDS xy xz yz pp pp pp
0.0000000000000000e+00 1.2000000000000000e+01 0.0000000000000000e+00
0.0000000000000000e+00 1.2000000000000000e+01 0.0000000000000000e+00
0.0000000000000000e+00 1.2000000000000000e+01 0.0000000000000000e+00
ITEM: ATOMS id type x y z
1 1 6.74171 6.58008 5.52904
2 2 5.90589 4.4262 6.28469
3 2 4.65404 5.50335 6.48209
4 2 5.84449 5.39771 7.59929
5 2 7.82529 6.0511 5.64911
6 2 6.61531 7.61729 6.11558
7 2 6.24393 6.41353 4.48831
8 3 5.6502 5.39379 6.59684
ITEM: TIMESTEP
4400
ITEM: NUMBER OF ATOMS
8
ITEM: BOX BOUNDS xy xz yz pp pp pp
0.0000000000000000e+00 1.2000000000000000e+01 0.0000000000000000e+00
0.0000000000000000e+00 1.2000000000000000e+01 0.0000000000000000e+00
0.0000000000000000e+00 1.2000000000000000e+01 0.0000000000000000e+00
ITEM: ATOMS id type x y z
1 1 6.54794 6.52063 5.50866
2 2 5.92938 4.44376 6.27931
3 2 4.81266 5.54454 6.77245
4 2 6.1769 5.4382 7.58338
5 2 7.62414 5.99053 5.29894
6 2 6.663 7.64842 5.97841
7 2 5.82029 6.48067 4.4764
8 3 5.80415 5.42987 6.629
ITEM: TIMESTEP
4500
ITEM: NUMBER OF ATOMS
8
ITEM: BOX BOUNDS xy xz yz pp pp pp
0.0000000000000000e+00 1.2000000000000000e+01 0.0000000000000000e+00
0.0000000000000000e+00 1.2000000000000000e+01 0.0000000000000000e+00
0.0000000000000000e+00 1.2000000000000000e+01 0.0000000000000000e+00
ITEM: ATOMS id type x y z
1 1 6.37966 6.43123 5.4998
2 2 5.3402 4.72359 6.25817
3 2 5.41375 5.8742 7.39345
4 2 6.78922 5.01345 7.01567
5 2 7.56136 6.2315 5.30077
6 2 6.08951 7.5682 5.85932
7 2 5.58179 6.15744 4.55015
8 3 5.95186 5.49725 6.63664
ITEM: TIMESTEP
4600
ITEM: NUMBER OF ATOMS
8
ITEM: BOX BOUNDS xy xz yz pp pp pp
0.0000000000000000e+00 1.2000000000000000e+01 0.0000000000000000e+00
0.0000000000000000e+00 1.2000000000000000e+01 0.0000000000000000e+00
0.0000000000000000e+00 1.2000000000000000e+01 0.0000000000000000e+00
ITEM: ATOMS id type x y z
1 1 6.2019 6.58772 5.23099
2 2 5.10284 4.98614 6.8048
3 2 6.28191 5.86376 7.68888
4 2 6.74545 4.58578 6.70249
5 2 7.38205 6.44101 5.01471
6 2 5.87197 7.65237 5.65506
7 2 5.49179 6.01232 4.51278
8 3 6.08183 5.37845 6.84393
ITEM: TIMESTEP
4700
ITEM: NUMBER OF ATOMS
8
ITEM: BOX BOUNDS xy xz yz pp pp pp
0.0000000000000000e+00 1.2000000000000000e+01 0.0000000000000000e+00
0.0000000000000000e+00 1.2000000000000000e+01 0.0000000000000000e+00
0.0000000000000000e+00 1.2000000000000000e+01 0.0000000000000000e+00
ITEM: ATOMS id type x y z
1 1 5.97939 6.49357 5.27086
2 2 5.4495 5.53086 7.50601
3 2 7.10166 5.73779 7.27934
4 2 6.37293 4.45591 6.47594
5 2 7.11453 6.68813 4.73837
6 2 5.47193 7.54954 5.7117
7 2 5.32259 5.73658 4.51324
8 3 6.25655 5.43984 6.82418
ITEM: TIMESTEP
4800
ITEM: NUMBER OF ATOMS
8
ITEM: BOX BOUNDS xy xz yz pp pp pp
0.0000000000000000e+00 1.2000000000000000e+01 0.0000000000000000e+00
0.0000000000000000e+00 1.2000000000000000e+01 0.0000000000000000e+00
0.0000000000000000e+00 1.2000000000000000e+01 0.0000000000000000e+00
ITEM: ATOMS id type x y z
1 1 5.88451 6.32617 5.46246
2 2 5.9303 5.92268 7.57076
3 2 7.33778 5.66111 6.75004
4 2 6.10487 4.53759 6.60228
5 2 6.86325 6.60621 4.86192
6 2 5.33584 7.32189 5.82558
7 2 5.08365 5.63547 4.84243
8 3 6.34242 5.56997 6.66006
ITEM: TIMESTEP
4900
ITEM: NUMBER OF ATOMS
8
ITEM: BOX BOUNDS xy xz yz pp pp pp
0.0000000000000000e+00 1.2000000000000000e+01 0.0000000000000000e+00
0.0000000000000000e+00 1.2000000000000000e+01 0.0000000000000000e+00
0.0000000000000000e+00 1.2000000000000000e+01 0.0000000000000000e+00
ITEM: ATOMS id type x y z
1 1 5.65335 6.39561 5.31231
2 2 6.11834 5.75743 7.70592
3 2 7.46976 5.81244 6.74514
4 2 6.54965 4.46367 6.71545
5 2 6.52635 6.21143 4.47784
6 2 5.49504 7.51641 5.7724
7 2 4.59838 5.80291 5.202
8 3 6.51347 5.52501 6.76405
ITEM: TIMESTEP
5000
ITEM: NUMBER OF ATOMS
8
ITEM: BOX BOUNDS xy xz yz pp pp pp
0.0000000000000000e+00 1.2000000000000000e+01 0.0000000000000000e+00
0.0000000000000000e+00 1.2000000000000000e+01 0.0000000000000000e+00
0.0000000000000000e+00 1.2000000000000000e+01 0.0000000000000000e+00
ITEM: ATOMS id type x y z
1 1 5.39199 6.36253 5.34219
2 2 6.44565 5.59359 7.75736
3 2 7.53384 6.10223 6.7257
4 2 6.97356 4.55376 6.52379
5 2 5.71404 5.7161 4.30724
6 2 5.82683 7.52572 5.44391
7 2 4.29323 6.0338 5.69756
8 3 6.71297 5.55333 6.75266
ITEM: TIMESTEP
5100
ITEM: NUMBER OF ATOMS
8
ITEM: BOX BOUNDS xy xz yz pp pp pp
0.0000000000000000e+00 1.2000000000000000e+01 0.0000000000000000e+00
0.0000000000000000e+00 1.2000000000000000e+01 0.0000000000000000e+00
0.0000000000000000e+00 1.2000000000000000e+01 0.0000000000000000e+00
ITEM: ATOMS id type x y z
1 1 5.46108 6.16055 5.68157
2 2 6.57998 5.65571 7.52056
3 2 7.38083 6.34489 6.27264
4 2 7.08325 4.7657 6.22558
5 2 5.26319 5.33513 4.87136
6 2 5.78797 7.12129 5.06792
7 2 4.52607 6.35045 6.42957
8 3 6.67152 5.70571 6.4957
ITEM: TIMESTEP
5200
ITEM: NUMBER OF ATOMS
8
ITEM: BOX BOUNDS xy xz yz pp pp pp
0.0000000000000000e+00 1.2000000000000000e+01 0.0000000000000000e+00
0.0000000000000000e+00 1.2000000000000000e+01 0.0000000000000000e+00
0.0000000000000000e+00 1.2000000000000000e+01 0.0000000000000000e+00
ITEM: ATOMS id type x y z
1 1 5.20097 6.11468 5.71587
2 2 6.83898 5.84828 7.45963
3 2 7.54944 6.36633 6.08914
4 2 7.16017 4.75365 6.18247
5 2 4.83714 4.99324 5.36897
6 2 5.54603 6.98166 4.90983
7 2 4.61599 6.7003 6.67819
8 3 6.87743 5.73608 6.44777
ITEM: TIMESTEP
5300
ITEM: NUMBER OF ATOMS
8
ITEM: BOX BOUNDS xy xz yz pp pp pp
0.0000000000000000e+00 1.2000000000000000e+01 0.0000000000000000e+00
0.0000000000000000e+00 1.2000000000000000e+01 0.0000000000000000e+00
0.0000000000000000e+00 1.2000000000000000e+01 0.0000000000000000e+00
ITEM: ATOMS id type x y z
1 1 5.07784 6.06332 5.86361
2 2 7.05339 5.55222 7.32609
3 2 7.45053 6.64521 6.15484
4 2 7.41475 4.99106 5.7919
5 2 4.55886 5.01215 6.20159
6 2 5.1546 6.28405 4.67241
7 2 4.79146 6.99414 6.5376
8 3 6.98129 5.78746 6.33407
ITEM: TIMESTEP
5400
ITEM: NUMBER OF ATOMS
8
ITEM: BOX BOUNDS xy xz yz pp pp pp
0.0000000000000000e+00 1.2000000000000000e+01 0.0000000000000000e+00
0.0000000000000000e+00 1.2000000000000000e+01 0.0000000000000000e+00
0.0000000000000000e+00 1.2000000000000000e+01 0.0000000000000000e+00
ITEM: ATOMS id type x y z
1 1 5.20292 5.98731 6.0256
2 2 7.11481 5.30224 7.0447
3 2 7.31202 6.76155 6.2818
4 2 7.37365 5.39553 5.36933
5 2 4.71905 5.24776 6.86277
6 2 4.93063 5.52173 4.93659
7 2 4.92796 7.15176 6.25235
8 3 6.88804 5.85311 6.2046
ITEM: TIMESTEP
5500
ITEM: NUMBER OF ATOMS
8
ITEM: BOX BOUNDS xy xz yz pp pp pp
0.0000000000000000e+00 1.2000000000000000e+01 0.0000000000000000e+00
0.0000000000000000e+00 1.2000000000000000e+01 0.0000000000000000e+00
0.0000000000000000e+00 1.2000000000000000e+01 0.0000000000000000e+00
ITEM: ATOMS id type x y z
1 1 5.16874 5.92058 6.15021
2 2 7.1903 5.38752 6.939
3 2 7.35614 6.80042 6.19301
4 2 7.31179 5.41206 5.24233
5 2 5.02457 5.44286 7.2749
6 2 4.84134 5.23327 5.17223
7 2 4.93096 7.17825 6.00282
8 3 6.89463 5.89932 6.10299
ITEM: TIMESTEP
5600
ITEM: NUMBER OF ATOMS
8
ITEM: BOX BOUNDS xy xz yz pp pp pp