8
 Atoms. Timestep: 0
B 5.74046 6.33007 5.41224
H 7.13765 6.17173 7.19603
H 6.99131 4.6591 6.48592
H 5.76199 5.3298 7.42483
H 5.30281 7.3409 5.86648
H 4.86235 5.64183 4.93919
H 6.6291 6.51884 4.57517
N 6.45143 5.56858 6.69633
8
 Atoms. Timestep: 20
B 5.69959 6.3256 5.39407
H 7.19933 6.2548 7.0206
H 6.95784 4.62213 6.46914
H 5.77201 5.41368 7.41566
H 5.29667 7.37567 5.89744
H 4.80908 5.55437 5.18374
H 6.50654 6.55868 4.60964
N 6.49323 5.56367 6.70259
8
 Atoms. Timestep: 40
B 5.66279 6.3049 5.43514
H 7.33188 6.15601 7.0238
H 6.9273 4.63314 6.41163
H 5.92468 5.46382 7.50997
H 5.26286 7.36416 5.9823
H 4.76952 5.46766 5.1684
H 6.45614 6.41124 4.48098
N 6.51227 5.59987 6.67227
8
 Atoms. Timestep: 60
B 5.63332 6.26598 5.49885
H 7.42525 6.15281 6.86398
H 6.82191 4.64174 6.30328
H 6.01293 5.47116 7.52439
H 5.21069 7.34267 5.84513
H 4.70706 5.49201 5.22356
H 6.40691 6.36421 4.46395
N 6.54126 5.63214 6.64833
8
 Atoms. Timestep: 80
B 5.58611 6.25835 5.49975
H 7.43297 6.22342 6.68548
H 6.85489 4.64627 6.27997
H 6.14527 5.57888 7.5727
H 5.22777 7.33627 5.83609
H 4.72115 5.43694 5.4818
H 6.3406 6.34525 4.57835
N 6.56783 5.63071 6.63263
8
 Atoms. Timestep: 100
B 5.53357 6.24863 5.49841
H 7.49768 6.21197 6.63323
H 6.94131 4.61876 6.45198
H 6.29788 5.61498 7.6085
H 5.22957 7.35663 5.99259
H 4.61082 5.43857 5.46776
H 6.10934 6.23449 4.4674
N 6.61094 5.64475 6.6203
8
 Atoms. Timestep: 120
B 5.47813 6.21126 5.52811
H 7.534 6.24919 6.54405
H 6.93611 4.61564 6.42317
H 6.24782 5.78878 7.53914
H 5.24986 7.36863 5.98963
H 4.44867 5.49625 5.55333
H 5.96797 6.26023 4.34905
N 6.67528 5.65191 6.61332
8
 Atoms. Timestep: 140
B 5.43339 6.19878 5.56113
H 7.56635 6.24828 6.44458
H 6.95941 4.62049 6.51893
H 6.36919 5.79553 7.53626
H 5.26945 7.305 5.93544
H 4.55831 5.43322 5.88338
H 5.96462 6.19855 4.41833
N 6.68817 5.67423 6.56366
8
 Atoms. Timestep: 160
B 5.44222 6.17544 5.62433
H 7.58164 6.21597 6.28975
H 6.94613 4.66225 6.3551
H 6.55878 5.86055 7.5358
H 5.19065 7.30766 5.92462
H 4.59075 5.38754 5.93693
H 5.70719 5.9432 4.50595
N 6.68937 5.70823 6.5284
8
 Atoms. Timestep: 180
B 5.41454 6.11646 5.69528
H 7.55237 6.2727 6.10505
H 6.80027 4.68879 6.2734
H 6.65034 5.84671 7.49969
H 5.15537 7.37093 5.83945
H 4.4426 5.42608 6.09157
H 5.62791 5.85085 4.52421
N 6.73546 5.74809 6.489
8
 Atoms. Timestep: 200
B 5.30945 6.10028 5.72753
H 7.58813 6.26874 6.04068
H 7.08216 4.72285 6.33396
H 6.84285 5.9444 7.44838
H 5.24317 7.33629 5.8079
H 4.51921 5.45429 6.42893
H 5.63934 5.762 4.53182
N 6.76752 5.75825 6.44567
8
 Atoms. Timestep: 220
B 5.26892 6.09411 5.76029
H 7.4556 6.37236 5.86442
H 7.1664 4.73691 6.39355
H 6.85534 6.08458 7.37966
H 5.16765 7.2382 5.84243
H 4.52048 5.51003 6.47223
H 5.15344 5.57346 4.6519
N 6.84136 5.76108 6.4195
8
 Atoms. Timestep: 240
B 5.23127 6.03047 5.82407
H 7.53882 6.3179 5.77052
H 7.19217 4.77607 6.37079
H 6.8778 6.17323 7.29188
H 5.18793 7.27187 5.80307
H 4.50871 5.57569 6.70252
H 5.03139 5.56374 4.7693
N 6.86912 5.79853 6.36289
8
 Atoms. Timestep: 260
B 5.21676 5.99358 5.91371
H 7.55993 6.27934 5.69723
H 7.15527 4.81649 6.40605
H 7.04332 6.21697 7.19322
H 5.18166 7.28028 5.73585
H 4.68211 5.57861 6.97663
H 5.17791 5.39853 4.83834
N 6.84721 5.83473 6.28379
8
 Atoms. Timestep: 280
B 5.28183 5.99722 5.98441
H 7.32348 6.21436 5.42826
H 7.04031 4.82318 6.28114
H 7.11171 6.32709 7.08737
H 4.89599 7.10766 5.75133
H 4.728 5.53392 6.96774
H 4.98577 5.13487 5.08855
N 6.84809 5.86257 6.2466
8
 Atoms. Timestep: 300
B 5.25649 5.94551 6.06125
H 7.28992 6.20486 5.3412
H 7.12391 4.88312 6.34499
H 7.32145 6.39041 6.90248
H 4.92079 7.01244 5.73684
H 4.83397 5.62503 7.13329
H 4.98301 5.14714 5.19015
N 6.83994 5.89376 6.18414
8
 Atoms. Timestep: 320
B 5.18428 5.89844 6.13952
H 7.25107 6.12374 5.21802
H 7.2754 4.95896 6.34632
H 7.23322 6.55794 6.79349
H 5.01755 7.09799 5.7559
H 4.90272 5.69551 7.33021
H 4.99088 5.08965 5.29723
N 6.88151 5.91144 6.11717
8
 Atoms. Timestep: 340
B 5.18546 5.89136 6.18934
H 7.14305 6.13823 5.12602
H 7.41851 5.05965 6.42404
H 7.18141 6.70038 6.61208
H 4.7915 7.06018 5.83437
H 4.88792 5.65192 7.3835
H 4.6959 4.96117 5.51352
N 6.92007 5.91349 6.06786
8
 Atoms. Timestep: 360
B 5.18413 5.86626 6.25651
H 7.17658 5.9784 5.06853
H 7.47434 5.14909 6.39291
H 7.2628 6.74958 6.46943
H 4.82268 6.91011 5.86416
H 5.13118 5.72392 7.44348
H 4.72456 4.93277 5.55849
N 6.88725 5.94197 6.02294
8
 Atoms. Timestep: 380
B 5.22986 5.84217 6.31991
H 7.04955 5.91841 4.99662
H 7.26655 5.14617 6.47639
H 7.23831 6.81189 6.31744
H 4.82585 6.88388 5.91189
H 5.22682 5.75524 7.51804
H 4.95073 4.86599 5.6831
N 6.85442 5.96501 5.96642
8
 Atoms. Timestep: 400
B 5.31205 5.84309 6.35625
H 6.92875 5.82099 4.95356
H 7.35959 5.20827 6.4048
H 7.27342 6.82844 6.19447
H 4.55871 6.81322 5.93891
H 5.20043 5.70357 7.606
H 4.92499 4.78219 5.90933
N 6.8133 5.98036 5.93098
8
 Atoms. Timestep: 420
B 5.29234 5.81486 6.42624
H 6.82964 5.86076 4.9066
H 7.48607 5.28497 6.30099
H 7.2251 6.89848 6.01106
H 4.62373 6.74227 5.8946
H 5.4255 5.87999 7.66072
H 4.93764 4.70067 5.97033
N 6.80837 5.98711 5.89577
8
 Atoms. Timestep: 440
B 5.26875 5.7862 6.50546
H 6.77205 5.82913 4.84437
H 7.5385 5.36081 6.2619
H 7.07485 6.95204 6.03421
H 4.75097 6.65592 5.97262
H 5.42241 6.01309 7.64787
H 4.95965 4.65019 6.17654
N 6.82724 6.0025 5.82085
8
 Atoms. Timestep: 460
B 5.29424 5.77297 6.55612
H 6.83341 5.88953 4.78037
H 7.63629 5.44171 6.14772
H 7.06982 6.9794 5.89232
H 4.54215 6.57991 5.97731
H 5.42044 6.01954 7.75036
H 4.91064 4.63976 6.44352
N 6.81512 6.00637 5.77791
8
 Atoms. Timestep: 480
B 5.32408 5.76361 6.5956
H 6.67643 5.7896 4.77665
H 7.58038 5.44069 6.14835
H 7.0646 6.99353 5.84636
H 4.42747 6.48261 5.96859
H 5.67973 6.1686 7.75184
H 5.10606 4.56107 6.48506
N 6.78339 6.02171 5.74851
8
 Atoms. Timestep: 500
B 5.39492 5.7616 6.62072
H 6.58429 5.74139 4.76879
H 7.47024 5.39941 6.14553
H 7.03755 7.00218 5.72087
H 4.5115 6.37421 6.09517
H 5.665 6.23672 7.6985
H 5.33998 4.53571 6.5941
N 6.72347 6.03373 5.72583
8
 Atoms. Timestep: 520
B 5.46396 5.77111 6.65406
H 6.52015 5.71643 4.74702
H 7.54977 5.5103 6.0359
H 7.01943 7.00193 5.62207
H 4.50514 6.19052 6.15086
H 5.63789 6.20933 7.73198
H 5.3495 4.55704 6.76944
N 6.67211 6.03383 5.69767
8
 Atoms. Timestep: 540
B 5.46447 5.74621 6.72332
H 6.36407 5.68023 4.75916
H 7.61283 5.56816 5.91356
H 6.76919 7.06103 5.57145
H 4.4061 6.17028 6.10459
H 5.82111 6.39183 7.75948
H 5.44887 4.52118 6.83342
N 6.68313 6.03824 5.65249
8
 Atoms. Timestep: 560
B 5.47442 5.71349 6.78955
H 6.41363 5.63537 4.69718
H 7.67617 5.73744 5.81219
H 6.75043 7.06666 5.45228
H 4.44111 6.21107 6.23684
H 5.8244 6.46907 7.72887
H 5.528 4.52841 7.00762
N 6.66034 6.04524 5.60188
8
 Atoms. Timestep: 580
B 5.51417 5.73176 6.83548
H 6.45355 5.56576 4.67098
H 7.62517 5.75627 5.87011
H 6.62408 7.07253 5.34978
H 4.48505 5.99554 6.39102
H 5.84565 6.37235 7.75715
H 5.5462 4.55714 7.11127
N 6.63354 6.05461 5.55107
8
 Atoms. Timestep: 600
B 5.55376 5.73399 6.85529
H 6.36209 5.45261 4.73879
H 7.59753 5.86984 5.89753
H 6.55171 7.05098 5.26081
H 4.4309 5.95301 6.45319
H 6.00345 6.46805 7.7179
H 5.78884 4.51843 7.02846
N 6.59193 6.05336 5.53961
8
 Atoms. Timestep: 620
B 5.63048 5.72196 6.8393
H 6.36465 5.37714 4.7945
H 7.59387 5.90948 5.75135
H 6.44886 6.99722 5.11005
H 4.39051 5.98996 6.55062
H 6.04139 6.557 7.71884
H 5.9365 4.553 7.08781
N 6.5298 6.05758 5.55792
8
 Atoms. Timestep: 640
B 5.70832 5.7452 6.85463
H 6.25647 5.33421 4.8271
H 7.55489 6.05953 5.75502
H 6.23136 6.98074 5.14209
H 4.51904 5.81456 6.55959
H 6.0386 6.49638 7.74365
H 5.8944 4.6246 7.19625
N 6.48983 6.04492 5.53105
8
 Atoms. Timestep: 660
B 5.71867 5.73734 6.92417
H 6.28807 5.31433 4.79066
H 7.55434 6.14727 5.51066
H 6.07752 6.94829 5.15316
H 4.60797 5.81492 6.5981
H 6.09672 6.59501 7.64676
H 6.07444 4.59021 7.21472
N 6.46725 6.04384 5.49952
8
 Atoms. Timestep: 680
B 5.74723 5.71351 6.97296
H 6.2392 5.30776 4.77418
H 7.52163 6.23532 5.45268
H 6.01621 6.8997 5.02172
H 4.50133 5.79626 6.77794
H 6.13322 6.70141 7.6409
H 6.24285 4.61419 7.34489
N 6.44841 6.0519 5.45487
8
 Atoms. Timestep: 700
B 5.80169 5.73506 7.00412
H 6.29776 5.22944 4.80197
H 7.46404 6.20578 5.55041
H 5.96635 6.91353 5.03298
H 4.54216 5.55248 6.90724
H 6.17162 6.69526 7.71567
H 6.28686 4.70077 7.37871
N 6.40109 6.05366 5.40407
8
 Atoms. Timestep: 720
B 5.84319 5.73896 7.02764
H 6.23591 5.26539 4.75147
H 7.41379 6.27533 5.47244
H 5.93187 6.83629 4.90976
H 4.68664 5.55474 6.90746
H 6.1541 6.73266 7.59679
H 6.51921 4.78818 7.2434
N 6.35387 6.03955 5.42204
8
 Atoms. Timestep: 740
B 5.89827 5.74535 6.98463
H 6.1761 5.17346 4.90643
H 7.36819 6.26737 5.32608
H 5.77358 6.82252 5.03062
H 4.7336 5.49842 7.01549
H 6.13322 6.78906 7.55424
H 6.69564 4.81636 7.33331
N 6.31576 6.04072 5.43487
8
 Atoms. Timestep: 760
B 5.98381 5.77462 6.95169
H 6.04473 5.19389 4.89546
H 7.28507 6.34878 5.25217
H 5.62413 6.73909 5.09216
H 4.79153 5.30495 7.01919
H 6.12925 6.85043 7.59462
H 6.69319 4.86988 7.45512
N 6.27209 6.02244 5.4501
8
 Atoms. Timestep: 780
B 6.03343 5.76898 7.02197
H 6.10564 5.18447 4.84488
H 7.19148 6.37803 5.11936
H 5.57275 6.74295 5.11708
H 4.86633 5.33858 6.9712
H 6.10094 6.90156 7.49288
H 6.89872 5.02135 7.30272
N 6.22181 6.00823 5.42879
8
 Atoms. Timestep: 800
B 6.06061 5.76551 7.06059
H 6.03121 5.14261 4.90023
H 7.16162 6.42427 5.16208
H 5.44522 6.63649 5.05377
H 5.02625 5.26542 7.32195
H 6.13139 6.86594 7.50321
H 7.03926 5.11323 7.32697
N 6.19377 6.01941 5.36899
8
 Atoms. Timestep: 820
B 6.10895 5.78922 7.08416
H 6.15352 5.1287 4.8575
H 7.07225 6.45095 5.08385
H 5.4416 6.64231 4.9571
H 5.16529 5.10401 7.44164
H 6.18228 6.92667 7.5444
H 7.17392 5.10713 7.33822
N 6.13119 6.00742 5.35405
8
 Atoms. Timestep: 840
B 6.19042 5.80112 7.10971
H 6.06796 5.12114 4.85588
H 6.98537 6.52224 5.12561
H 5.28822 6.49325 4.99428
H 5.13241 5.11964 7.25448
H 6.12057 6.98419 7.50665
H 7.29294 5.25916 7.12898
N 6.08987 5.98824 5.35983
8
 Atoms. Timestep: 860
B 6.2407 5.81302 7.05111
H 6.11325 5.06506 4.97504
H 6.81239 6.58225 4.91637
H 5.17198 6.43963 5.21539
H 5.3167 5.09399 7.42516
H 6.13047 6.91753 7.52653
H 7.29282 5.36719 7.23776
N 6.05465 5.98149 5.3743
8
 Atoms. Timestep: 880
B 6.28542 5.84099 6.98706
H 6.02041 5.07751 4.97975
H 6.61133 6.61076 4.80726
H 5.0601 6.23852 5.28104
H 5.53119 5.04337 7.4134
H 6.14181 6.9425 7.4391
H 7.40464 5.37775 7.25465
N 6.02502 5.97243 5.43236
8
 Atoms. Timestep: 900
B 6.36308 5.87154 6.97912
H 6.14502 5.07524 4.98717
H 6.53636 6.68735 4.97893
H 4.99429 6.22921 5.37776
H 5.5016 5.02592 7.32216
H 6.11546 7.02061 7.40444
H 7.62417 5.5379 6.92459
N 5.95458 5.92845 5.45135
8
 Atoms. Timestep: 920
B 6.42381 5.88351 6.97653
H 6.09509 5.09219 4.92841
H 6.42574 6.71508 4.96223
H 4.90159 6.05241 5.2995
H 5.85399 4.99632 7.69637
H 6.2222 6.99516 7.4829
H 7.60217 5.69432 6.89467
N 5.89459 5.92141 5.43413
8
 Atoms. Timestep: 940
B 6.49229 5.89949 7.01505
H 6.14024 5.10648 4.93567
H 6.19219 6.73076 4.8509
H 4.82705 5.98933 5.34602
H 6.13872 4.97893 7.67145
H 6.23472 7.00346 7.39051
H 7.63697 5.76783 6.80182
N 5.83683 5.90685 5.42354
8
 Atoms. Timestep: 960
B 6.58327 5.9424 7.01613
H 6.08328 5.06997 4.95291
H 6.07156 6.75462 4.90702
H 4.7878 5.81206 5.56718
H 6.05581 4.97026 7.45159
H 6.15612 6.99865 7.45618
H 7.80488 5.9045 6.61368
N 5.78168 5.87851 5.42612
8
 Atoms. Timestep: 980
B 6.63136 5.97938 6.94578
H 6.01359 5.09738 4.88128
H 5.76168 6.70625 4.8066
H 4.7633 5.74856 5.66401
H 6.24912 4.89976 7.51466
H 6.22637 6.95262 7.60674
H 7.90183 6.01875 6.74948
N 5.74769 5.85618 5.4608
8
 Atoms. Timestep: 1000
B 6.65667 5.98126 6.89125
H 6.02133 5.07362 4.97831
H 5.65877 6.71014 4.87037
H 4.79625 5.61102 5.83495
H 6.58092 4.91717 7.50765
H 6.19796 6.96042 7.44446
H 7.76161 6.12512 6.5626
N 5.72096 5.85657 5.50461
8
 Atoms. Timestep: 1020
B 6.68581 6.00647 6.81329
H 6.05232 5.13441 4.95084
H 5.66272 6.74229 5.05746
H 4.74825 5.59353 5.85639
H 6.61512 4.97605 7.38878
H 6.16581 6.92609 7.40381
H 7.70223 6.30666 6.24044
N 5.7035 5.81701 5.58622
8
 Atoms. Timestep: 1040
B 6.70464 6.04512 6.75482
H 5.95223 5.15499 4.90956
H 5.579 6.72469 5.11619
H 4.70436 5.51093 5.84657
H 6.88538 4.99236 7.38195
H 6.30225 6.90783 7.54555
H 7.83065 6.43141 6.17313
N 5.66702 5.78411 5.62596
8
 Atoms. Timestep: 1060
B 6.78572 6.05946 6.77459
H 5.95513 5.09168 4.98589
H 5.33527 6.67134 5.07713
H 4.7811 5.41158 6.08411
H 7.13304 4.97724 7.29127
H 6.28847 6.92465 7.50141
H 7.71871 6.50888 6.09821
N 5.60748 5.78282 5.60606
8
 Atoms. Timestep: 1080
B 6.87109 6.10433 6.75477
H 5.86145 5.08184 4.95282
H 5.15422 6.56051 5.0455
H 4.79508 5.3539 6.15554
H 7.052 4.98887 7.17361
H 6.29662 6.81297 7.5415
H 7.65004 6.59939 6.09706
N 5.57036 5.76164 5.62649
8
 Atoms. Timestep: 1100
B 6.88522 6.14245 6.71625
H 5.80029 5.06071 4.94693
H 5.12834 6.59886 5.17353
H 4.78459 5.28958 6.19046
H 7.17255 5.01806 7.07523
H 6.42443 6.78635 7.64397
H 7.8048 6.70918 6.08161
N 5.53763 5.72757 5.6458
8
 Atoms. Timestep: 1120
B 6.88785 6.13255 6.68952
H 5.81647 5.11296 4.93238
H 5.10504 6.59967 5.23868
H 4.81802 5.27564 6.27026
H 7.41089 5.06285 7.00785
H 6.41277 6.8384 7.58458
H 7.68815 6.80483 5.88826
N 5.52587 5.71866 5.67997
8
 Atoms. Timestep: 1140
B 6.89145 6.1365 6.62025
H 5.77037 5.12107 4.95397
H 5.06499 6.59127 5.33187
H 4.81209 5.19581 6.23252
H 7.44438 5.1174 6.99689
H 6.38199 6.77183 7.51986
H 7.4053 6.81108 5.79896
N 5.54968 5.72175 5.73969
8
 Atoms. Timestep: 1160
B 6.84143 6.15895 6.54152
H 5.80035 5.19732 4.94348
H 5.08869 6.60965 5.46776
H 4.87709 5.17714 6.35859
H 7.46694 5.16286 6.8508
H 6.50926 6.76303 7.54434
H 7.49035 6.83528 5.82197
N 5.56301 5.69465 5.7895
8
 Atoms. Timestep: 1180
B 6.86072 6.17159 6.52259
H 5.72267 5.13368 4.98486
H 4.87831 6.50508 5.53663
H 5.02815 5.06643 6.44333
H 7.49143 5.1336 6.70947
H 6.52844 6.79228 7.54474
H 7.5397 6.92916 5.70228
N 5.55127 5.69812 5.8088
8
 Atoms. Timestep: 1200
B 6.94968 6.2028 6.50877
H 5.68477 5.17661 4.96208
H 4.69674 6.36956 5.58013
H 5.09861 5.02173 6.50802
H 7.52041 5.14529 6.73248
H 6.5522 6.73679 7.53019
H 7.37615 6.97407 5.62209
N 5.5012 5.68377 5.81848
8
 Atoms. Timestep: 1220
B 6.98073 6.25185 6.47887
H 5.63153 5.19758 4.94314
H 4.7676 6.46439 5.72533
H 5.06669 4.91664 6.46814
H 7.65295 5.24916 6.63006
H 6.72402 6.78233 7.52552
H 7.45385 6.95438 5.70432
N 5.45098 5.63591 5.83715
8
 Atoms. Timestep: 1240
B 7.00892 6.27148 6.46024
H 5.49067 5.27894 4.90623
H 4.75523 6.44202 5.83607
H 4.97087 4.89346 6.44119
H 7.71349 5.27297 6.50312
H 6.72043 6.84398 7.5129
H 7.36866 7.03512 5.56732
N 5.44904 5.60633 5.86793
8
 Atoms. Timestep: 1260
B 7.02049 6.26468 6.4148
H 5.48576 5.27845 4.94131
H 4.73347 6.42431 5.95898
H 5.10758 4.82542 6.47377
H 7.77479 5.3141 6.52307
H 6.68261 6.77614 7.48832
H 7.09603 7.09611 5.42399
N 5.45005 5.61529 5.89994
8
 Atoms. Timestep: 1280
B 6.95132 6.26436 6.35031
H 5.47646 5.31991 4.96521
H 4.69356 6.35787 6.06322
H 5.2565 4.82067 6.56396
H 7.81154 5.42062 6.3704
H 6.81292 6.75456 7.43766
H 7.25943 7.09992 5.50471
N 5.47269 5.61132 5.94285
8
 Atoms. Timestep: 1300
B 6.89725 6.28201 6.28912
H 5.41039 5.26277 5.04156
H 4.66344 6.26354 6.16021
H 5.35691 4.78625 6.57505
H 7.63432 5.2987 6.15699
H 6.83533 6.72778 7.41982
H 7.17376 7.101 5.52564
N 5.53127 5.62153 5.9919
8
 Atoms. Timestep: 1320
B 6.91303 6.28615 6.24171
H 5.44941 5.29156 5.06805
H 4.66298 6.24563 6.25459
H 5.50812 4.80759 6.67199
H 7.69522 5.33293 6.07585
H 6.89782 6.64129 7.44582
H 6.91665 7.20695 5.37611
N 5.5151 5.6122 6.02754
8
 Atoms. Timestep: 1340
B 6.95784 6.30969 6.20495
H 5.30062 5.23963 5.12142
H 4.6566 6.24599 6.30408
H 5.36164 4.73999 6.67198
H 7.89156 5.61438 5.89111
H 7.0852 6.70165 7.35248
H 6.91609 7.31417 5.38571
N 5.4747 5.57047 6.06773
8
 Atoms. Timestep: 1360
B 7.01144 6.37995 6.15834
H 5.19762 5.24792 5.16511
H 4.75399 6.29406 6.38847
H 5.27733 4.72147 6.73107
H 7.78775 5.58857 5.67592
H 7.10075 6.68723 7.30403
H 6.78039 7.31213 5.47088
N 5.45578 5.51659 6.10306
8
 Atoms. Timestep: 1380
B 7.02402 6.4213 6.10076
H 5.18942 5.19791 5.20742
H 4.75659 6.25999 6.48911
H 5.44966 4.71561 6.7889
H 7.74749 5.56259 5.5805
H 7.21256 6.56231 7.3113
H 6.64626 7.33304 5.4737
N 5.43863 5.5004 6.13923
8
 Atoms. Timestep: 1400
B 6.97034 6.38693 6.05485
H 5.12995 5.12823 5.30623
H 4.59087 6.03809 6.57407
H 5.60293 4.71285 6.78961
H 7.80623 5.74854 5.40567
H 7.38434 6.58178 7.22485
H 6.7187 7.49527 5.44557
N 5.46353 5.52168 6.18215
8
 Atoms. Timestep: 1420
B 6.91203 6.38678 6.00568
H 5.21966 5.14939 5.33288
H 4.69368 6.03697 6.70541
H 5.76637 4.74737 6.82032
H 7.52371 5.67477 5.25596
H 7.32185 6.49886 7.13154
H 6.62332 7.51911 5.50743
N 5.51455 5.52739 6.21954
8
 Atoms. Timestep: 1440
B 6.82824 6.39466 5.96298
H 5.13644 5.20611 5.41081
H 4.84291 6.12295 6.7659
H 5.81621 4.71859 6.81553
H 7.39926 5.65661 5.17546
H 7.42432 6.42247 7.00669
H 6.45233 7.39942 5.53268
N 5.5847 5.52847 6.2558
8
 Atoms. Timestep: 1460
B 6.82197 6.38319 5.90098
H 5.02468 5.24251 5.5178
H 4.91941 6.04467 6.96817
H 5.76959 4.65531 6.82169
H 7.53672 5.91576 4.98332
H 7.58365 6.59842 6.88306
H 6.34096 7.43138 5.50165
N 5.58214 5.51147 6.30587
8
 Atoms. Timestep: 1480
B 6.88592 6.44641 5.81541
H 4.92826 5.30879 5.6102
H 5.04955 6.04782 7.1067
H 5.87192 4.57763 6.73493
H 7.38029 5.85844 4.85124
H 7.49676 6.6585 6.87752
H 6.19974 7.50167 5.48715
N 5.55055 5.45807 6.37245
8
 Atoms. Timestep: 1500
B 6.87883 6.52527 5.75137
H 4.79468 5.29618 5.77668
H 5.14191 5.86343 7.2986
H 5.85633 4.51847 6.71872
H 7.28696 5.78465 4.93213
H 7.5948 6.58058 6.68609
H 6.27892 7.51538 5.37933
N 5.55409 5.42539 6.413
8
 Atoms. Timestep: 1520
B 6.83161 6.51966 5.71205
H 4.75234 5.30864 5.90182
H 5.2229 5.73717 7.42106
H 5.98887 4.51976 6.53522
H 7.27713 5.83107 4.80154
H 7.68274 6.68341 6.56013
H 6.34215 7.50158 5.34248
N 5.5682 5.42808 6.45972
8
 Atoms. Timestep: 1540
B 6.78178 6.47665 5.68178
H 4.78026 5.419 5.94211
H 5.43567 5.66227 7.50706
H 6.09958 4.58574 6.44526
H 7.11848 5.79955 4.66454
H 7.60987 6.72482 6.61124
H 6.10682 7.48242 5.39743
N 5.61488 5.45468 6.48268
8
 Atoms. Timestep: 1560
B 6.68066 6.45944 5.68277
H 4.77017 5.47648 6.12213
H 5.56078 5.744 7.49734
H 5.95471 4.5021 6.45473
H 7.03159 5.78605 4.73843
H 7.63803 6.61571 6.43813
H 5.95747 7.46845 5.40328
N 5.70988 5.47374 6.47575
8
 Atoms. Timestep: 1580
B 6.61219 6.43183 5.6672
H 4.80604 5.56167 6.19537
H 5.80803 5.8118 7.504
H 6.01146 4.50401 6.52328
H 6.90292 5.92547 4.63949
H 7.5965 6.7027 6.24123
H 6.02026 7.44986 5.4533
N 5.7461 5.46913 6.49471
8
 Atoms. Timestep: 1600
B 6.62662 6.46147 5.57379
H 4.77788 5.4144 6.34033
H 5.83441 5.77411 7.57511
H 6.10355 4.52851 6.46173
H 6.69388 5.94112 4.42861
H 7.66555 6.69736 6.23841
H 5.88717 7.41651 5.59386
N 5.74802 5.45938 6.56096
8
 Atoms. Timestep: 1620
B 6.59713 6.53016 5.50903
H 4.79198 5.3252 6.43586
H 5.84506 5.69841 7.64132
H 6.15637 4.49896 6.59164
H 6.57204 5.87278 4.43587
H 7.77572 6.51662 5.98867
H 5.89582 7.5696 5.57871
N 5.76545 5.42713 6.60849
8
 Atoms. Timestep: 1640
B 6.56067 6.54582 5.46815
H 4.83121 5.3036 6.41534
H 5.88652 5.81438 7.63261
H 6.24492 4.5022 6.57867
H 6.33756 5.98627 4.4577
H 7.70425 6.55629 5.75366
H 6.09637 7.67852 5.514
N 5.78902 5.38936 6.66288
8
 Atoms. Timestep: 1660
B 6.52619 6.52446 5.43188
H 4.86774 5.22414 6.48875
H 5.89212 5.74775 7.68812
H 6.32123 4.54397 6.64696
H 6.07655 6.05767 4.42093
H 7.68917 6.4713 5.674
H 6.00617 7.56485 5.73047
N 5.83332 5.42237 6.66964
8
 Atoms. Timestep: 1680
B 6.45096 6.495 5.45287
H 4.92044 5.20906 6.52162
H 5.95894 5.86646 7.65002
H 6.38921 4.57134 6.66845
H 5.96329 6.06424 4.34669
H 7.72162 6.32473 5.46584
H 5.96302 7.52316 5.89407
N 5.88681 5.44872 6.66077
8
 Atoms. Timestep: 1700
B 6.36664 6.43935 5.50099
H 4.95689 5.26227 6.56164
H 6.10037 6.02656 7.53421
H 6.47397 4.60116 6.68747
H 5.79408 6.12103 4.45719
H 7.60076 6.39911 5.34979
H 6.1338 7.62961 5.7691
N 5.94162 5.45731 6.63702
8
 Atoms. Timestep: 1720
B 6.33089 6.43655 5.45335
H 5.01657 5.20021 6.72405
H 6.20157 5.9003 7.62113
H 6.49814 4.60674 6.6463
H 5.62713 6.0952 4.58614
H 7.48652 6.28205 5.33199
H 6.03822 7.56041 5.86206
N 5.98289 5.48767 6.64433
8
 Atoms. Timestep: 1740
B 6.29676 6.4743 5.3944
H 5.02389 5.25102 6.79884
H 6.37988 5.86055 7.65393
H 6.51597 4.62068 6.47432
H 5.56251 6.03914 4.48348
H 7.47887 6.26409 5.09487
H 5.96087 7.54125 5.83061
N 6.00537 5.46343 6.72092
8
 Atoms. Timestep: 1760
B 6.24565 6.49917 5.35663
H 5.05548 5.32254 6.9755
H 6.53553 5.80959 7.63988
H 6.43072 4.51003 6.5623
H 5.45551 5.98499 4.50131
H 7.46849 6.44394 5.00309
H 6.01248 7.6646 5.62306
N 6.04222 5.43288 6.75226
8
 Atoms. Timestep: 1780
B 6.20998 6.51606 5.2984
H 5.12967 5.42676 7.12277
H 6.69541 5.78118 7.59184
H 6.32273 4.45154 6.60451
H 5.3948 5.96644 4.63304
H 7.37789 6.35724 5.082
H 5.84215 7.61449 5.73191
N 6.0837 5.42972 6.76426
8
 Atoms. Timestep: 1800
B 6.1635 6.47903 5.30981
H 5.19592 5.56363 7.20899
H 6.9003 5.76443 7.44663
H 6.2909 4.48919 6.50031
H 5.41867 5.99362 4.52879
H 7.28272 6.39469 4.9398
H 5.77 7.5058 5.8385
N 6.11271 5.45016 6.77711
8
 Atoms. Timestep: 1820
B 6.11136 6.42296 5.36978
H 5.3353 5.59845 7.3583
H 7.00373 5.74087 7.35767
H 6.18466 4.48098 6.54048
H 5.311 5.93671 4.52047
H 7.26777 6.55004 4.90488
H 5.80934 7.54533 5.73501
N 6.14913 5.48334 6.73414
8
 Atoms. Timestep: 1840
B 6.0704 6.4014 5.42108
H 5.43411 5.73677 7.35488
H 7.13307 5.69898 7.18868
H 6.18431 4.50981 6.51615
H 5.20314 5.77808 4.75566
H 7.25894 6.3618 4.99099
H 5.66697 7.50483 5.74912
N 6.18295 5.5187 6.68466
8
 Atoms. Timestep: 1860
B 6.02553 6.38053 5.40846
H 5.50755 5.71785 7.41721
H 7.1967 5.71413 7.16911
H 6.12615 4.56247 6.41487
H 5.2115 5.82613 4.76569
H 7.03669 6.33257 4.7847
H 5.64219 7.48304 5.78389
N 6.22898 5.53151 6.71011
8
 Atoms. Timestep: 1880
B 5.96417 6.39743 5.34261
H 5.57812 5.66294 7.50037
H 7.25085 5.63489 7.2135
H 6.26383 4.50558 6.57444
H 5.01372 5.85695 4.80038
H 6.95241 6.44324 4.6586
H 5.76161 7.55439 5.70874
N 6.26919 5.51692 6.7523
8
 Atoms. Timestep: 1900
B 5.9121 6.44178 5.29247
H 5.61246 5.7294 7.48072
H 7.26205 5.86463 7.14011
H 6.30328 4.47424 6.62886
H 4.8299 5.85613 4.97577
H 6.97096 6.23354 4.62976
H 5.72717 7.55198 5.75476
N 6.31755 5.479 6.77999
8
 Atoms. Timestep: 1920
B 5.8664 6.43219 5.29769
H 5.64103 5.68201 7.51572
H 7.32247 5.84416 7.08799
H 6.46215 4.4888 6.6723
H 4.80981 5.94358 4.93512
H 6.74807 6.13993 4.4854
H 5.80351 7.54814 5.73978
N 6.34701 5.49092 6.78836
8
 Atoms. Timestep: 1940
B 5.82956 6.37405 5.3213
H 5.75958 5.59252 7.59136
H 7.30365 5.9149 7.14328
H 6.46507 4.52398 6.60103
H 4.7391 6.02479 5.07892
H 6.63287 6.20299 4.48302
H 5.95006 7.54081 5.67541
N 6.37091 5.52481 6.76038
8
 Atoms. Timestep: 1960
B 5.82226 6.34682 5.38474
H 5.69578 5.62719 7.48028
H 7.3516 5.95804 6.96626
H 6.55531 4.5893 6.47243
H 4.64007 5.97634 5.33272
H 6.59544 5.94889 4.5045
H 5.90215 7.55786 5.6836
N 6.38439 5.55599 6.72096
8
 Atoms. Timestep: 1980
B 5.8134 6.31506 5.47349
H 5.812 5.63948 7.50118
H 7.32457 6.01124 7.03563
H 6.53377 4.59893 6.49589
H 4.61018 5.91226 5.38172
H 6.3721 5.82253 4.44444
H 5.89618 7.51856 5.58098
N 6.40491 5.59154 6.65249
8
 Atoms. Timestep: 2000
B 5.73475 6.29334 5.42741
H 5.84655 5.67214 7.50961
H 7.44901 5.96233 6.89219
H 6.59262 4.61056 6.49255
H 4.57964 5.98547 5.52071
H 6.29844 5.9681 4.41742
H 5.95023 7.46585 5.56353
N 6.4536 5.59675 6.69117
8
 Atoms. Timestep: 2020
B 5.66146 6.32113 5.36281
H 6.0388 5.76065 7.61276
H 7.46591 6.04923 6.81039
H 6.5885 4.56865 6.60218
H 4.53111 6.01817 5.55859
H 6.22001 5.86562 4.41713
H 5.83768 7.51708 5.64179
N 6.5126 5.56711 6.72338
8
 Atoms. Timestep: 2040
B 5.59969 6.34887 5.36118
H 6.17808 5.80902 7.65815
H 7.56752 5.92208 6.68748
H 6.68524 4.55922 6.74817
H 4.42876 5.91319 5.47717
H 6.11937 5.8045 4.36358
H 5.78977 7.57346 5.52227
N 6.55406 5.55985 6.73792
8
 Atoms. Timestep: 2060
B 5.55445 6.31569 5.3743
H 6.30405 5.91244 7.65489
H 7.59162 5.91762 6.57832
H 6.51617 4.57653 6.68421
H 4.4027 5.92073 5.63435
H 6.15342 5.91536 4.36242
H 5.76839 7.48207 5.48131
N 6.59127 5.57521 6.73218
8
 Atoms. Timestep: 2080
B 5.56454 6.27421 5.42621
H 6.3795 5.96002 7.62689
H 7.63027 5.76171 6.45813
H 6.44985 4.63354 6.67562
H 4.49559 5.87843 5.74572
H 6.02066 5.79652 4.43713
H 5.65426 7.4431 5.62537
N 6.59108 5.62517 6.67975
8
 Atoms. Timestep: 2100
B 5.5947 6.22786 5.54259
H 6.47467 6.10797 7.51537
H 7.62663 5.75479 6.39273
H 6.40079 4.68266 6.74639
H 4.52056 5.73246 5.81664
H 5.89639 5.7515 4.46655
H 5.59964 7.5035 5.5566
N 6.57577 5.65667 6.5953
8
 Atoms. Timestep: 2120
B 5.55928 6.18581 5.58978
H 6.5088 6.22624 7.41591
H 7.59118 5.78062 6.16314
H 6.43452 4.71936 6.79126
H 4.43951 5.76523 6.0248
H 5.91989 5.79439 4.44624
H 5.63381 7.43654 5.5495
N 6.60245 5.67557 6.56628
8
 Atoms. Timestep: 2140
B 5.45027 6.19376 5.53537
H 6.77557 6.21665 7.45069
H 7.61442 5.79196 6.09279
H 6.6538 4.72261 6.87535
H 4.39866 5.8747 6.05661
H 5.69618 5.64251 4.47275
H 5.60277 7.3386 5.66421
N 6.67128 5.6791 6.59243
8
 Atoms. Timestep: 2160
B 5.34347 6.20337 5.53198
H 6.8386 6.2529 7.43115
H 7.63259 5.83852 6.01683
H 6.73931 4.71401 6.88654
H 4.3602 5.84814 6.06791
H 5.49097 5.59736 4.52099
H 5.55519 7.41632 5.4299
N 6.76256 5.66596 6.61355
8
 Atoms. Timestep: 2180
B 5.27011 6.19318 5.55304
H 6.83616 6.26124 7.41863
H 7.68069 5.81515 5.99011
H 6.75751 4.72925 6.85849
H 4.36403 5.90996 6.33631
H 5.50539 5.49632 4.5686
H 5.48527 7.42937 5.25042
N 6.81829 5.67567 6.59236
8
 Atoms. Timestep: 2200
B 5.28827 6.15506 5.59439
H 6.95858 6.23223 7.39349
H 7.75267 5.82904 6.04705
H 6.75487 4.77373 6.80862
H 4.44124 6.01014 6.50797
H 5.28904 5.26936 4.71737
H 5.4126 7.3362 5.37331
N 6.80571 5.7187 6.53008
8
 Atoms. Timestep: 2220
B 5.34852 6.10337 5.70593
H 6.83831 6.30479 7.31781
H 7.63723 5.85736 5.83934
H 6.70418 4.81192 6.70231
H 4.53112 5.96591 6.58245
H 5.08708 5.2849 4.85355
H 5.47522 7.1594 5.25041
N 6.78322 5.76332 6.4656
8
 Atoms. Timestep: 2240
B 5.38877 6.05749 5.81307
H 6.91745 6.39861 7.16616
H 7.52545 6.02605 5.72249
H 6.84686 4.85238 6.73066
H 4.61704 6.09296 6.73757
H 5.20973 5.18907 4.98917
H 5.47812 7.14827 5.16487
N 6.7292 5.77563 6.38546
8
 Atoms. Timestep: 2260
B 5.30298 6.03309 5.82577
H 7.0607 6.45106 7.09074
H 7.44924 5.91939 5.52924
H 7.05421 4.89764 6.70832
H 4.5535 6.18084 6.81569
H 5.07993 5.01203 5.15612
H 5.39057 7.19796 5.26422
N 6.79585 5.79792 6.37184
8
 Atoms. Timestep: 2280
B 5.18336 6.02758 5.85439
H 7.23465 6.54099 6.97413
H 7.45555 5.92956 5.45438
H 6.98474 4.91671 6.7576
H 4.52494 6.0687 6.89015
H 4.82613 5.06457 5.17749
H 5.25296 6.96595 5.16457
N 6.91022 5.81448 6.36019
8
 Atoms. Timestep: 2300
B 5.08741 6.0173 5.88499
H 7.31054 6.55149 6.9356
H 7.59009 5.73338 5.46911
H 7.13169 4.98885 6.81181
H 4.65018 6.11904 6.99455
H 4.93135 4.98136 5.28354
H 5.09945 6.96606 5.18618
N 6.9532 5.83286 6.31784
8
 Atoms. Timestep: 2320
B 5.09611 5.99107 5.9232
H 7.29048 6.67024 6.74575
H 7.59748 5.76338 5.42601
H 7.07317 5.04727 6.86858
H 4.69879 6.1548 7.06379
H 4.94841 4.87533 5.4761
H 4.94714 7.08172 5.2586
N 6.95777 5.83506 6.27708
8
 Atoms. Timestep: 2340
B 5.18179 5.96498 5.99968
H 7.21338 6.73331 6.67594
H 7.42789 5.63346 5.33108
H 7.05992 5.12595 6.8728
H 4.74458 6.08409 7.14344
H 4.78648 4.9239 5.48528
H 4.9882 6.89726 5.16285
N 6.91561 5.8691 6.23003
8
 Atoms. Timestep: 2360
B 5.27397 5.93271 6.04928
H 7.27115 6.76851 6.45202
H 7.32591 5.67437 5.27508
H 7.15595 5.20902 6.85352
H 4.86287 6.17204 7.17348
H 4.89711 4.87545 5.56356
H 5.1308 6.82907 5.3183
N 6.81425 5.88467 6.19431
8
 Atoms. Timestep: 2380
B 5.2975 5.9274 6.09048
H 7.12701 6.83857 6.3771
H 7.14864 5.58102 5.18868
H 7.2085 5.25229 6.83032
H 4.85517 6.19043 7.19097
H 5.00494 4.79646 5.72528
H 5.02017 6.86562 5.35352
N 6.81606 5.88906 6.16039
8
 Atoms. Timestep: 2400
B 5.20693 5.916 6.14325
H 7.29939 6.83757 6.28232
H 7.26673 5.59985 5.16966
H 7.24275 5.28698 6.83348
H 4.86741 6.1422 7.29768
H 4.8427 4.80166 5.78694
H 4.83818 6.72998 5.20864
N 6.88645 5.90686 6.1259
8
 Atoms. Timestep: 2420
B 5.1167 5.88688 6.16697
H 7.3868 6.83463 6.27511
H 7.34626 5.53122 5.17762
H 7.29231 5.31082 6.8036
H 4.96295 6.25756 7.31906
H 4.84877 4.72669 5.9214
H 4.80331 6.72256 5.33664
N 6.93582 5.93038 6.08941
8
 Atoms. Timestep: 2440
B 5.09314 5.88651 6.19299
H 7.26407 6.90237 6.18902
H 7.28588 5.57643 5.10491
H 7.27918 5.33527 6.8121
H 4.96387 6.29481 7.33073
H 4.90993 4.6956 6.05879
H 4.72061 6.64878 5.40982
N 6.96948 5.92568 6.0642
8
 Atoms. Timestep: 2460
B 5.14977 5.88792 6.23964
H 7.26193 6.90564 6.15053
H 7.29654 5.5731 5.09804
H 7.42573 5.40382 6.74085
H 4.9591 6.28239 7.37983
H 4.86563 4.69736 6.08937
H 4.67871 6.51382 5.28556
N 6.92122 5.9301 6.03973
8
 Atoms. Timestep: 2480
B 5.2384 5.84875 6.26557
H 7.20371 6.92641 6.0441
H 7.09995 5.57083 5.04604
H 7.38802 5.41183 6.7023
H 5.0353 6.40448 7.33819
H 4.93246 4.66826 6.20875
H 4.81116 6.58075 5.28415
N 6.85407 5.94701 6.02834
8
 Atoms. Timestep: 2500
B 5.32727 5.85135 6.27742
H 7.09843 6.94655 6.01058
H 6.95299 5.5314 5.02721
H 7.35745 5.43192 6.67131
H 5.09814 6.41449 7.32793
H 5.04295 4.68195 6.32679
H 4.78958 6.45909 5.38863
N 6.79487 5.95194 6.00999
8
 Atoms. Timestep: 2520
B 5.27029 5.86222 6.33014
H 7.1694 6.93993 5.92861
H 7.11817 5.54636 5.00484
H 7.42721 5.50108 6.6414
H 5.14164 6.3885 7.42857
H 5.06493 4.64376 6.39112
H 4.6486 6.2725 5.42646
N 6.82236 5.95593 5.96442
8
 Atoms. Timestep: 2540
B 5.17777 5.81458 6.39263
H 7.18946 6.97607 5.85089
H 7.09655 5.47691 4.9771
H 7.39815 5.52184 6.65589
H 5.16688 6.48374 7.42934
H 5.06555 4.59404 6.54961
H 4.5174 6.35984 5.44861
N 6.90345 5.98409 5.90976
8
 Atoms. Timestep: 2560
B 5.13172 5.79192 6.44415
H 7.22423 6.98925 5.73885
H 7.11645 5.45498 4.96279
H 7.52415 5.59811 6.58666
H 5.16216 6.4931 7.42523
H 5.03596 4.61655 6.64571
H 4.46506 6.31175 5.49915
N 6.93226 5.9979 5.8738
8
 Atoms. Timestep: 2580
B 5.14779 5.8094 6.47977
H 7.12197 6.99053 5.63
H 7.11297 5.47179 4.93006
H 7.62987 5.69825 6.50145
H 5.15084 6.45994 7.48697
H 5.06934 4.62623 6.64442
H 4.52444 6.11335 5.54172
N 6.91405 5.99183 5.85517
8
 Atoms. Timestep: 2600
B 5.23452 5.79441 6.48849
H 6.92127 7.00564 5.58915
H 6.91152 5.37405 4.97228
H 7.58877 5.75285 6.49018