8
Lattice="12.0 0.0 0.0 0.0 12.0 0.0 0.0 0.0 12.0" Properties=species:S:1:pos:R:3:momenta:R:3:forces:R:3:magmoms:R:1 energy=-34.9870313 stress="0.0023449337615000605 -0.0003494100230475664 -0.0001383675414570124 -0.0003494100230475664 0.0016014845284153582 -0.0003502974782641392 -0.0001383675414570124 -0.0003502974782641392 0.0014142264096130793" free_energy=-34.9870313 magmom=0.0 dipole="_JSON [[0.0, 0.0, 0.0]]" nbands=16 pbc="T T T"
B        4.15576135       5.54896244       4.69958909       0.00000000       0.00000000       0.00000000      -0.22005188       1.04135614       0.22999023       0.00000000
H        8.07262489       6.81660571       7.67688232       0.00000000       0.00000000       0.00000000       0.06932716       0.62735557      -0.16918023       0.00000000
H        8.07022498       5.43539046       8.41312487       0.00000000       0.00000000       0.00000000       0.15856262      -0.54047051      -0.23854668       0.00000000
H        8.41351358       5.54666320       6.79678798       0.00000000       0.00000000       0.00000000      -0.43690823      -1.13048964      -1.60014137       0.00000000
H        4.04247177       5.18339429       3.58687513       0.00000000       0.00000000       0.00000000       0.06296425      -0.47528921      -0.45785520       0.00000000
H        4.90937587       6.43343679       4.97443206       0.00000000       0.00000000       0.00000000       0.48251735       0.00053454      -0.07074538       0.00000000
H        3.40456310       5.28282113       5.57017125       0.00000000       0.00000000       0.00000000      -0.32872999      -0.57645238       0.29706862       0.00000000
N        8.59543690       5.93805530       7.68222250       0.00000000       0.00000000       0.00000000       0.21231872       1.05345549       2.00940999       0.00000000
8
Lattice="12.0 0.0 0.0 0.0 12.0 0.0 0.0 0.0 12.0" Properties=species:S:1:pos:R:3:momenta:R:3:forces:R:3:magmoms:R:1 energy=-34.92840253 stress="0.0026275814260090344 -0.0002874328735180605 0.00020871437996207218 -0.0002874328735180605 0.002011168343219904 0.00038575850625718986 0.00020871437996207218 0.00038575850625718986 0.0019579299181345287" free_energy=-34.92840253 magmom=0.0 dipole="_JSON [[0.0, 0.0, 0.0]]" nbands=16 pbc="T T T"
B        4.13297239       5.66334775       4.90577568       0.00000000       0.00000000       0.00000000      -0.27124103       0.82813728       0.22267951       0.00000000
H        8.38449605       6.86417721       7.89789998       0.00000000       0.00000000       0.00000000      -0.07579956       0.19977652       0.43753270       0.00000000
H        7.70272011       5.37404361       8.12825219       0.00000000       0.00000000       0.00000000      -0.08512947      -0.06176004       1.07628025       0.00000000
H        7.96527022       5.86902678       6.73391177       0.00000000       0.00000000       0.00000000       0.40348375       0.13971604      -0.82755674       0.00000000
H        4.44753479       5.13582279       3.87174781       0.00000000       0.00000000       0.00000000      -0.04336000      -0.20335848       0.24894680       0.00000000
H        4.31218329       6.83631365       5.09045004       0.00000000       0.00000000       0.00000000       0.36746555       0.22741267      -0.38777290       0.00000000
H        3.55127801       5.25743355       5.86618822       0.00000000       0.00000000       0.00000000      -0.05388702      -0.84586459      -0.07998402       0.00000000
N        8.44872199       5.87375812       7.64062744       0.00000000       0.00000000       0.00000000      -0.24153222      -0.28405942      -0.69012559       0.00000000
8
Lattice="12.0 0.0 0.0 0.0 12.0 0.0 0.0 0.0 12.0" Properties=species:S:1:pos:R:3:momenta:R:3:forces:R:3:magmoms:R:1 energy=-34.93411147 stress="0.0028110181309169186 -8.667507576702745e-05 0.0007867376502913955 -8.667507576702745e-05 0.002461664331383558 0.00019849569384004833 0.0007867376502913955 0.00019849569384004833 0.002164430266288904" free_energy=-34.93411147 magmom=0.0 dipole="_JSON [[0.0, 0.0, 0.0]]" nbands=16 pbc="T T T"
B        4.01903695       5.69098178       4.97168878       0.00000000       0.00000000       0.00000000      -0.58284669       1.17398764      -1.08836649       0.00000000
H        8.51581089       6.63835119       7.95274292       0.00000000       0.00000000       0.00000000      -0.49803994      -0.12810690       0.35173526       0.00000000
H        7.40086270       5.31081793       7.89804733       0.00000000       0.00000000       0.00000000      -0.06857009       0.07949289       1.14054638       0.00000000
H        7.74345054       6.07263813       6.58568136       0.00000000       0.00000000       0.00000000       0.89978905       0.03802432       0.52207256       0.00000000
H        4.60456568       5.21314813       4.04725708       0.00000000       0.00000000       0.00000000       0.32614703      -0.34083323       0.14713097       0.00000000
H        3.75762682       6.87610121       4.85918090       0.00000000       0.00000000       0.00000000       0.28127315      -0.16344501       0.20063409       0.00000000
H        3.48418911       5.12389879       5.83788055       0.00000000       0.00000000       0.00000000      -0.02867339      -0.66798321       0.73472144       0.00000000
N        8.21058976       5.77327597       7.48903720       0.00000000       0.00000000       0.00000000      -0.32907913       0.00886350      -2.00847421       0.00000000
8
Lattice="12.0 0.0 0.0 0.0 12.0 0.0 0.0 0.0 12.0" Properties=species:S:1:pos:R:3:momenta:R:3:forces:R:3:magmoms:R:1 energy=-34.86802009 stress="0.0020386439844372996 -0.0008460805771358313 -0.0003294875753064041 -0.0008460805771358313 0.002378293704034556 2.314078829928711e-05 -0.0003294875753064041 2.314078829928711e-05 0.003512747194619406" free_energy=-34.86802009 magmom=0.0 dipole="_JSON [[0.0, 0.0, 0.0]]" nbands=16 pbc="T T T"
B        4.03745739       5.69193149       4.85526337       0.00000000       0.00000000       0.00000000      -0.17829157       0.35650698       0.95558179       0.00000000
H        8.41061065       6.52261751       7.93931671       0.00000000       0.00000000       0.00000000       0.96629327       0.49195458      -0.18758053       0.00000000
H        7.44901180       5.42909086       7.90555367       0.00000000       0.00000000       0.00000000      -1.54346253      -1.07056958      -0.17463936       0.00000000
H        7.85337394       6.21736723       6.45628050       0.00000000       0.00000000       0.00000000      -0.16445008      -0.66727687       0.70744788       0.00000000
H        4.82789268       5.21767417       4.06068329       0.00000000       0.00000000       0.00000000      -0.38907564       0.04264994       0.24220481       0.00000000
H        3.67153985       6.85170863       4.83711417       0.00000000       0.00000000       0.00000000       0.18884574      -0.16941727      -0.47525164       0.00000000
H        3.58938935       5.14829137       5.87005289       0.00000000       0.00000000       0.00000000       0.37850067      -0.23784645      -0.72068233       0.00000000
N        8.20904707       5.72325316       7.31810371       0.00000000       0.00000000       0.00000000       0.74164014       1.25399867      -0.34708064       0.00000000
8
Lattice="12.0 0.0 0.0 0.0 12.0 0.0 0.0 0.0 12.0" Properties=species:S:1:pos:R:3:momenta:R:3:forces:R:3:magmoms:R:1 energy=-34.91844793 stress="0.00268987175574195 -0.0009943678863598108 0.0005223469117793784 -0.0009943678863598108 0.003029196486200531 -3.1786976129117664e-05 0.0005223469117793784 -3.1786976129117664e-05 0.0021286011078460996" free_energy=-34.91844793 magmom=0.0 dipole="_JSON [[0.0, 0.0, 0.0]]" nbands=16 pbc="T T T"
B        4.15061577       5.90362263       4.73122744       0.00000000       0.00000000       0.00000000       0.36665601       0.56777159       0.78095665       0.00000000
H        8.70369297       6.23522548       7.65179125       0.00000000       0.00000000       0.00000000       0.17117145      -0.01375747       0.53224585       0.00000000
H        7.26075891       5.60076220       7.27342024       0.00000000       0.00000000       0.00000000      -1.34968206      -0.84946642       1.18941451       0.00000000
H        7.88094306       6.60122735       6.32333165       0.00000000       0.00000000       0.00000000       0.74500296      -0.57294365      -0.03252236       0.00000000
H        5.31921236       5.80551138       4.34820875       0.00000000       0.00000000       0.00000000      -0.76966400       0.14370059      -0.29608410       0.00000000
H        3.29630703       6.72152463       4.36492960       0.00000000       0.00000000       0.00000000       0.61964568      -0.64486204      -0.14797983       0.00000000
H        3.93450634       5.27847537       5.75226138       0.00000000       0.00000000       0.00000000      -0.21815312      -0.06116902      -0.32144260       0.00000000
N        8.17287579       5.76907070       6.91388649       0.00000000       0.00000000       0.00000000       0.43502310       1.43072641      -1.70458813       0.00000000
8
Lattice="12.0 0.0 0.0 0.0 12.0 0.0 0.0 0.0 12.0" Properties=species:S:1:pos:R:3:momenta:R:3:forces:R:3:magmoms:R:1 energy=-35.03135034 stress="0.001506758036947633 -0.00018232489240427196 -0.00012044949819804537 -0.00018232489240427196 0.0024130404412402223 0.00012615893739547444 -0.00012044949819804537 0.00012615893739547444 0.0027936558690795747" free_energy=-35.03135034 magmom=0.0 dipole="_JSON [[0.0, 0.0, 0.0]]" nbands=16 pbc="T T T"
B        4.27125241       5.97143309       4.99441158       0.00000000       0.00000000       0.00000000      -0.15895262      -0.30437773       1.49643523       0.00000000
H        8.62083240       5.80117725       7.76859463       0.00000000       0.00000000       0.00000000       0.55502712      -0.09710269      -0.18455904       0.00000000
H        7.18560137       5.56541258       7.27767441       0.00000000       0.00000000       0.00000000      -0.90137859       0.01911457      -0.35611344       0.00000000
H        8.14794023       6.64128402       6.48154967       0.00000000       0.00000000       0.00000000      -0.24920934       0.12114036      -0.16497831       0.00000000
H        5.31609495       6.51186151       4.95174069       0.00000000       0.00000000       0.00000000       0.52272710       0.33328782      -0.51181630       0.00000000
H        3.37916760       6.08907975       4.23140537       0.00000000       0.00000000       0.00000000      -0.19950243      -0.01838578      -0.47930832       0.00000000
H        4.11779974       5.35871598       6.04629388       0.00000000       0.00000000       0.00000000      -0.15544426      -0.01527722      -0.50132824       0.00000000
N        8.11213160       5.69058447       6.87211305       0.00000000       0.00000000       0.00000000       0.58673301      -0.03839935       0.70166842       0.00000000
8
Lattice="12.0 0.0 0.0 0.0 12.0 0.0 0.0 0.0 12.0" Properties=species:S:1:pos:R:3:momenta:R:3:forces:R:3:magmoms:R:1 energy=-35.03471894 stress="0.002537425111077991 -0.00025023140694676655 0.000296154521193223 -0.00025023140694676655 0.001502415126241243 0.0010001436915237755 0.000296154521193223 0.0010001436915237755 0.0024573795041610935" free_energy=-35.03471894 magmom=0.0 dipole="_JSON [[0.0, 0.0, 0.0]]" nbands=16 pbc="T T T"
B        4.10591743       5.78151694       5.34026340       0.00000000       0.00000000       0.00000000       0.53932384       0.36442887      -1.41764583       0.00000000
H        8.26742361       5.25301503       7.76536661       0.00000000       0.00000000       0.00000000      -0.03935379      -0.33202622       0.11123584       0.00000000
H        6.74818121       5.31209872       7.15442842       0.00000000       0.00000000       0.00000000      -0.08574304      -0.34347135       0.13654935       0.00000000
H        7.84649242       6.33557356       6.70562407       0.00000000       0.00000000       0.00000000       0.27352055       0.96037841      -0.54414727       0.00000000
H        4.67953520       6.82614907       5.44945243       0.00000000       0.00000000       0.00000000      -0.11086712       0.36525835      -0.24550759       0.00000000
H        3.73257639       5.38019420       4.23463339       0.00000000       0.00000000       0.00000000      -0.00251467       0.20883148       0.76166453       0.00000000
H        4.10917488       5.17385093       6.32217567       0.00000000       0.00000000       0.00000000      -0.40801757      -0.94275212       0.89886485       0.00000000
N        7.74325683       5.34494242       6.88104556       0.00000000       0.00000000       0.00000000      -0.16634820      -0.28064742       0.29898613       0.00000000
8
Lattice="12.0 0.0 0.0 0.0 12.0 0.0 0.0 0.0 12.0" Properties=species:S:1:pos:R:3:momenta:R:3:forces:R:3:magmoms:R:1 energy=-34.96347762 stress="0.0024797029793233645 2.9396871348979306e-05 -6.587855460485821e-05 2.9396871348979306e-05 0.0015737312773550615 -0.00032131034326474676 -6.587855460485821e-05 -0.00032131034326474676 0.0029607680192158753" free_energy=-34.96347762 magmom=0.0 dipole="_JSON [[0.0, 0.0, 0.0]]" nbands=16 pbc="T T T"
B        4.00152334       5.82754158       5.54523424       0.00000000       0.00000000       0.00000000       0.76043691       0.48971827       2.22132615       0.00000000
H        8.10195092       4.97042568       7.46901004       0.00000000       0.00000000       0.00000000       0.36127008      -0.21302618      -0.18214036       0.00000000
H        6.53842348       5.18425826       7.40797608       0.00000000       0.00000000       0.00000000       0.18236776      -0.08384685      -0.58265684       0.00000000
H        7.51401843       6.24836806       6.75472541       0.00000000       0.00000000       0.00000000       0.27002670       1.63463171      -0.32104874       0.00000000
H        4.05452722       7.02957432       5.70265896       0.00000000       0.00000000       0.00000000      -0.35694753      -0.10623000      -0.18337078       0.00000000
H        4.33647273       5.38393156       4.53098996       0.00000000       0.00000000       0.00000000      -0.11474669      -0.65202232      -1.00603838       0.00000000
H        3.89804908       5.17893612       6.61333901       0.00000000       0.00000000       0.00000000      -0.25374099       0.23680419      -1.04332313       0.00000000
N        7.38452526       5.26009612       6.78479713       0.00000000       0.00000000       0.00000000      -0.84866625      -1.30602882       1.09725208       0.00000000
8
Lattice="12.0 0.0 0.0 0.0 12.0 0.0 0.0 0.0 12.0" Properties=species:S:1:pos:R:3:momenta:R:3:forces:R:3:magmoms:R:1 energy=-35.90429399 stress="0.0035015274203656637 0.0003285164276939623 -0.0007685796210065382 0.0003285164276939623 0.005048396434571167 -0.00018788414840911405 -0.0007685796210065382 -0.00018788414840911405 0.004617335607048199" free_energy=-35.90429399 magmom=0.0 dipole="_JSON [[0.0, 0.0, 0.0]]" nbands=16 pbc="T T T"
B        5.36939201       6.30262067       5.81529436       0.00000000       0.00000000       0.00000000      -1.69318741      -1.02129608      -0.41490133       0.00000000
H        7.15944124       7.12201668       6.97405346       0.00000000       0.00000000       0.00000000       0.01167932       0.81665902       0.52439481       0.00000000
H        7.48961849       5.98635931       5.85845942       0.00000000       0.00000000       0.00000000      -0.22372062      -0.26678396       0.70290275       0.00000000
H        6.79405792       5.51929684       7.37100911       0.00000000       0.00000000       0.00000000       0.19151911       0.54234535      -0.55024704       0.00000000
H        4.51038151       6.98475851       6.57043507       0.00000000       0.00000000       0.00000000       1.20775494      -0.96723257      -1.04406730       0.00000000
H        5.59772699       6.81918075       4.62899089       0.00000000       0.00000000       0.00000000      -0.20252433      -0.55330253       1.52979704       0.00000000
H        4.97054863       4.87798332       5.68003048       0.00000000       0.00000000       0.00000000       0.84440272       2.72564695       0.31562751       0.00000000
N        6.81150195       6.24551033       6.61441251       0.00000000       0.00000000       0.00000000      -0.13592373      -1.27603617      -1.06350644       0.00000000
8
Lattice="12.0 0.0 0.0 0.0 12.0 0.0 0.0 0.0 12.0" Properties=species:S:1:pos:R:3:momenta:R:3:forces:R:3:magmoms:R:1 energy=-35.52804796 stress="0.003834882459420794 -0.0006218445438946204 -1.1313022400083195e-05 -0.0006218445438946204 0.004153828537753183 -0.0008004964766990565 -1.1313022400083195e-05 -0.0008004964766990565 0.0037129475132583337" free_energy=-35.52804796 magmom=0.0 dipole="_JSON [[0.0, 0.0, 0.0]]" nbands=16 pbc="T T T"
B        5.52998842       5.89387238       5.34088205       0.00000000       0.00000000       0.00000000       1.48409946      -0.79933537      -0.22279304       0.00000000
H        7.26538888       7.09022990       6.22791389       0.00000000       0.00000000       0.00000000       0.30150687      -0.02306328       0.15321792       0.00000000
H        6.74900325       6.04274725       7.47746158       0.00000000       0.00000000       0.00000000       0.42474802      -0.49777447      -0.63732627       0.00000000
H        5.86673889       7.22011911       7.02026914       0.00000000       0.00000000       0.00000000      -1.80088997       2.33140738       0.94394691       0.00000000
H        5.10907602       4.77988089       5.87767767       0.00000000       0.00000000       0.00000000      -0.18145024       1.56609449      -0.66075918       0.00000000
H        4.73461112       6.99925604       5.01784644       0.00000000       0.00000000       0.00000000       1.38677200      -2.25589567       0.35106644       0.00000000
H        6.60088403       5.41759938       4.52253842       0.00000000       0.00000000       0.00000000      -2.10999156       1.24152296       0.98900142       0.00000000
N        6.47851980       6.57836248       6.63378564       0.00000000       0.00000000       0.00000000       0.49520542      -1.56295603      -0.91635420       0.00000000
8
Lattice="12.0 0.0 0.0 0.0 12.0 0.0 0.0 0.0 12.0" Properties=species:S:1:pos:R:3:momenta:R:3:forces:R:3:magmoms:R:1 energy=-35.70769722 stress="-0.00039523439037814225 -0.0007143045249459178 -0.00030716621601572684 -0.0007143045249459178 -0.0003488521257543493 0.000743642975769479 -0.00030716621601572684 0.000743642975769479 -0.0010387585041460618" free_energy=-35.70769722 magmom=0.0 dipole="_JSON [[0.0, 0.0, 0.0]]" nbands=16 pbc="T T T"
B        5.09495325       6.03355420       5.95990090       0.00000000       0.00000000       0.00000000       0.99510753       2.76899133      -1.12676885       0.00000000
H        7.34799597       6.12767102       5.89389291       0.00000000       0.00000000       0.00000000       1.64639663       1.48291793      -0.75920863       0.00000000
H        6.54255838       4.81765500       5.94056869       0.00000000       0.00000000       0.00000000       0.32417693      -3.63858436      -1.47783869       0.00000000
H        6.74609811       5.53972249       7.25337027       0.00000000       0.00000000       0.00000000       0.98188063      -0.29593105       5.01656098       0.00000000
H        4.65200403       5.20981772       6.57233476       0.00000000       0.00000000       0.00000000      -2.01206970      -1.90151171       1.12499420       0.00000000
H        4.85702901       7.18234500       6.37876977       0.00000000       0.00000000       0.00000000      -0.12901913      -0.43369668      -0.40426857       0.00000000
H        5.21434777       5.85592127       4.74662973       0.00000000       0.00000000       0.00000000      -0.80025402       0.20201554      -0.00011029       0.00000000
N        6.60199118       5.67936411       6.34210112       0.00000000       0.00000000       0.00000000      -1.00621887       1.81579901      -2.37336014       0.00000000
8
Lattice="12.0 0.0 0.0 0.0 12.0 0.0 0.0 0.0 12.0" Properties=species:S:1:pos:R:3:momenta:R:3:forces:R:3:magmoms:R:1 energy=-36.164438 stress="0.003651628412277479 0.00041083508612885136 -0.000313294079743446 0.00041083508612885136 0.0031307069113862334 0.0002317684612165825 -0.000313294079743446 0.0002317684612165825 0.003948112809711023" free_energy=-36.164438 magmom=0.0 dipole="_JSON [[0.0, 0.0, 0.0]]" nbands=16 pbc="T T T"
B        5.59182825       6.50862331       6.38283001       0.00000000       0.00000000       0.00000000       0.00509988      -0.99035419       0.52140335       0.00000000
H        7.23946272       6.00902950       4.75368374       0.00000000       0.00000000       0.00000000      -0.38235265      -1.10536199       1.96286713       0.00000000
H        5.90658052       5.01265770       4.78434910       0.00000000       0.00000000       0.00000000       1.78653909       0.51076937       2.00250351       0.00000000
H        7.12412043       4.73756123       6.00800048       0.00000000       0.00000000       0.00000000       0.77034169      -0.68506658       0.36014839       0.00000000
H        4.76053728       5.72846760       6.87993715       0.00000000       0.00000000       0.00000000       0.30850736       0.11119271      -0.23272498       0.00000000
H        6.20381405       7.08020278       7.24631626       0.00000000       0.00000000       0.00000000       0.43350438       0.06505983       0.10800735       0.00000000
H        5.07416163       7.26243877       5.60743234       0.00000000       0.00000000       0.00000000       0.03532728       0.10753062      -0.58116522       0.00000000
N        6.65200394       5.46230310       5.50464127       0.00000000       0.00000000       0.00000000      -2.95696703       1.98623023      -4.14103953       0.00000000
8
Lattice="12.0 0.0 0.0 0.0 12.0 0.0 0.0 0.0 12.0" Properties=species:S:1:pos:R:3:momenta:R:3:forces:R:3:magmoms:R:1 energy=-36.06563755 stress="0.0030998699990517306 0.0007628590032662646 0.001087787056292065 0.0007628590032662646 0.0044857260408727095 -0.0002881602153010271 0.001087787056292065 -0.0002881602153010271 0.002139817068537766" free_energy=-36.06563755 magmom=0.0 dipole="_JSON [[0.0, 0.0, 0.0]]" nbands=16 pbc="T T T"
B        6.36541604       5.34356463       5.70913883       0.00000000       0.00000000       0.00000000      -0.18733343       1.04807893       0.00092643       0.00000000
H        4.70844188       6.80529055       5.73978806       0.00000000       0.00000000       0.00000000       0.13206090       0.36533579      -0.13831730       0.00000000
H        6.07867564       7.53566305       6.44333841       0.00000000       0.00000000       0.00000000      -1.00564197      -1.03144263       0.35457240       0.00000000
H        4.96734040       6.52287563       7.26648125       0.00000000       0.00000000       0.00000000      -0.99508430      -0.32407396       2.84826453       0.00000000
H        7.29155812       6.15879945       5.34802526       0.00000000       0.00000000       0.00000000      -0.26680464      -1.38608299       0.09533823       0.00000000
H        6.57953947       4.46433695       6.61874834       0.00000000       0.00000000       0.00000000      -0.12349671       0.92242477      -0.99302096       0.00000000
H        5.58372763       5.05179706       4.73351875       0.00000000       0.00000000       0.00000000       0.80046711      -0.06009284       0.91307708       0.00000000
N        5.44808619       6.68054037       6.44347544       0.00000000       0.00000000       0.00000000       1.64583305       0.46585293      -3.08084041       0.00000000
8
Lattice="12.0 0.0 0.0 0.0 12.0 0.0 0.0 0.0 12.0" Properties=species:S:1:pos:R:3:momenta:R:3:forces:R:3:magmoms:R:1 energy=-35.61578235 stress="0.003449299327087023 -0.0001886359756323814 -0.0005951689330754714 -0.0001886359756323814 0.004003887453305173 -0.0014097781921647177 -0.0005951689330754714 -0.0014097781921647177 0.006531005092793825" free_energy=-35.61578235 magmom=0.0 dipole="_JSON [[0.0, 0.0, 0.0]]" nbands=16 pbc="T T T"
B        6.17932989       5.43855992       5.40658961       0.00000000       0.00000000       0.00000000      -0.21843219      -0.87397995       0.24444127       0.00000000
H        4.77126903       7.03505479       6.29158270       0.00000000       0.00000000       0.00000000      -0.14766789       0.21590599      -0.31509871       0.00000000
H        6.25496011       7.57649616       6.70570825       0.00000000       0.00000000       0.00000000       0.74373121       0.50928470       0.38887606       0.00000000
H        5.50397347       6.17089517       7.48266421       0.00000000       0.00000000       0.00000000       0.94920233       1.39837968      -1.53165591       0.00000000
H        7.22873097       5.66626750       4.67791534       0.00000000       0.00000000       0.00000000      -0.87472223      -0.01052898       1.39024679       0.00000000
H        6.26125801       4.42350384       6.41921856       0.00000000       0.00000000       0.00000000      -0.12186150       1.57985693      -2.24242468       0.00000000
H        5.19667670       5.42856191       4.51733579       0.00000000       0.00000000       0.00000000       0.92923578      -0.18130999       1.53900646       0.00000000
N        5.71295682       6.73848352       6.56854161       0.00000000       0.00000000       0.00000000      -1.25948551      -2.63760839       0.52660873       0.00000000
8
Lattice="12.0 0.0 0.0 0.0 12.0 0.0 0.0 0.0 12.0" Properties=species:S:1:pos:R:3:momenta:R:3:forces:R:3:magmoms:R:1 energy=-35.36919771 stress="0.006229768691179744 0.00024411069598850562 -0.00042663886810349845 0.00024411069598850562 0.006396013433826783 0.0007152748861282099 -0.00042663886810349845 0.0007152748861282099 0.003918752326360248" free_energy=-35.36919771 magmom=0.0 dipole="_JSON [[0.0, 0.0, 0.0]]" nbands=16 pbc="T T T"
B        5.32161113       6.16939068       5.55007763       0.00000000       0.00000000       0.00000000       0.20496010       1.38338420      -2.00638075       0.00000000
H        7.61382293       5.27202295       6.11017021       0.00000000       0.00000000       0.00000000      -0.73469431       0.32655086      -0.14376015       0.00000000
H        6.84784745       5.97893657       7.39930696       0.00000000       0.00000000       0.00000000      -0.06247333      -0.15354074      -0.18610939       0.00000000
H        7.54918867       6.95260720       6.25008899       0.00000000       0.00000000       0.00000000      -1.25468368      -1.39912351      -0.10154116       0.00000000
H        5.00870669       4.94924017       4.97445438       0.00000000       0.00000000       0.00000000       0.57986321       2.10958458       1.43109479       0.00000000
H        4.38617707       6.94902944       6.24027164       0.00000000       0.00000000       0.00000000       1.88198581      -1.85705277      -0.68577251       0.00000000
H        5.80311215       7.05075983       4.60069304       0.00000000       0.00000000       0.00000000      -0.96261117      -1.51236787       1.15796504       0.00000000
N        6.95316799       6.04762862       6.36548969       0.00000000       0.00000000       0.00000000       0.34765337       1.10256523       0.53450413       0.00000000
8
Lattice="12.0 0.0 0.0 0.0 12.0 0.0 0.0 0.0 12.0" Properties=species:S:1:pos:R:3:momenta:R:3:forces:R:3:magmoms:R:1 energy=-36.26461553 stress="0.0021188546355800125 -0.000532730248912143 0.0012059830638617194 -0.000532730248912143 0.004635912928433115 -0.00012216042692114162 0.0012059830638617194 -0.00012216042692114162 0.003164430346929202" free_energy=-36.26461553 magmom=0.0 dipole="_JSON [[0.0, 0.0, 0.0]]" nbands=16 pbc="T T T"
B        5.24324030       6.07975496       5.77965054       0.00000000       0.00000000       0.00000000       0.05147729       0.30356124       0.34863541       0.00000000
H        6.85481577       4.65639057       6.67826868       0.00000000       0.00000000       0.00000000       0.15123785       1.07537145      -0.96022127       0.00000000
H        7.05339726       6.24111224       7.17180333       0.00000000       0.00000000       0.00000000      -0.00624615      -0.30477552      -0.97256033       0.00000000
H        7.40614497       5.86709758       5.58319354       0.00000000       0.00000000       0.00000000       2.56105458       0.31783184      -2.39936359       0.00000000
H        5.05208885       5.27969786       4.82819667       0.00000000       0.00000000       0.00000000       0.00770574       0.52354900       0.58242682       0.00000000
H        4.59385503       5.87430982       6.83574313       0.00000000       0.00000000       0.00000000       0.07796001       0.04784437      -0.73051286       0.00000000
H        5.23170558       7.34360943       5.45199565       0.00000000       0.00000000       0.00000000       0.31112368      -1.44561992       0.33233425       0.00000000
N        6.83334855       5.65813847       6.31905359       0.00000000       0.00000000       0.00000000      -3.15431301      -0.51776248       3.79926156       0.00000000
8
Lattice="12.0 0.0 0.0 0.0 12.0 0.0 0.0 0.0 12.0" Properties=species:S:1:pos:R:3:momenta:R:3:forces:R:3:magmoms:R:1 energy=-35.53420383 stress="0.0026475871354819363 -8.456435341838188e-05 -0.0004795232810327625 -8.456435341838188e-05 0.005468786703194415 -0.0009820573834202837 -0.0004795232810327625 -0.0009820573834202837 0.005533529147100635" free_energy=-35.53420383 magmom=0.0 dipole="_JSON [[0.0, 0.0, 0.0]]" nbands=16 pbc="T T T"
B        6.53306264       6.14320662       6.20846890       0.00000000       0.00000000       0.00000000       1.15135179      -0.73961491      -0.06186275       0.00000000
H        4.82286572       5.64944993       4.78092739       0.00000000       0.00000000       0.00000000      -0.32546935      -1.49905635      -1.07130162       0.00000000