   8   8   0   0
  0.2160000E+03  0.1200000E-08  0.1200000E-08  0.1200000E-08  0.5000000E-15
   1.0000000000000000E-004
  CAR 
 13-Butadiene                            
      2.45353069    -24.86037092  301     -5.45611999      1.00000000
    -24.860  0.0000E+00  0.0000E+00
    -24.769  0.0000E+00  0.0000E+00
    -24.678  0.0000E+00  0.0000E+00
    -24.587  0.0000E+00  0.0000E+00
    -24.496  0.0000E+00  0.0000E+00
    -24.405  0.0000E+00  0.0000E+00
    -24.314  0.0000E+00  0.0000E+00
    -24.223  0.0000E+00  0.0000E+00
    -24.132  0.0000E+00  0.0000E+00
    -24.041  0.0000E+00  0.0000E+00
    -23.950  0.0000E+00  0.0000E+00
    -23.859  0.1239E-09  0.1128E-10
    -23.768  0.2756E-03  0.2510E-04
    -23.677  0.1112E+01  0.1013E+00
    -23.586  0.1702E+02  0.1651E+01
    -23.495  0.3829E+01  0.2000E+01
    -23.404  0.4892E-02  0.2000E+01
    -23.313  0.1265E-07  0.2000E+01
    -23.222  0.0000E+00  0.2000E+01
    -23.130  0.0000E+00  0.2000E+01
    -23.039  0.0000E+00  0.2000E+01
    -22.948  0.0000E+00  0.2000E+01
    -22.857  0.0000E+00  0.2000E+01
    -22.766  0.0000E+00  0.2000E+01
    -22.675  0.0000E+00  0.2000E+01
    -22.584  0.0000E+00  0.2000E+01
    -22.493  0.0000E+00  0.2000E+01
    -22.402  0.0000E+00  0.2000E+01
    -22.311  0.0000E+00  0.2000E+01
    -22.220  0.0000E+00  0.2000E+01
    -22.129  0.0000E+00  0.2000E+01
    -22.038  0.0000E+00  0.2000E+01
    -21.947  0.0000E+00  0.2000E+01
    -21.856  0.0000E+00  0.2000E+01
    -21.765  0.0000E+00  0.2000E+01
    -21.674  0.0000E+00  0.2000E+01
    -21.583  0.0000E+00  0.2000E+01
    -21.492  0.0000E+00  0.2000E+01
    -21.401  0.0000E+00  0.2000E+01
    -21.310  0.0000E+00  0.2000E+01
    -21.219  0.0000E+00  0.2000E+01
    -21.127  0.0000E+00  0.2000E+01
    -21.036  0.0000E+00  0.2000E+01
    -20.945  0.0000E+00  0.2000E+01
    -20.854  0.0000E+00  0.2000E+01
    -20.763  0.0000E+00  0.2000E+01
    -20.672  0.0000E+00  0.2000E+01
    -20.581  0.0000E+00  0.2000E+01
    -20.490  0.0000E+00  0.2000E+01
    -20.399  0.0000E+00  0.2000E+01
    -20.308  0.0000E+00  0.2000E+01
    -20.217  0.0000E+00  0.2000E+01
    -20.126  0.0000E+00  0.2000E+01
    -20.035  0.0000E+00  0.2000E+01
    -19.944  0.0000E+00  0.2000E+01
    -19.853  0.0000E+00  0.2000E+01
    -19.762  0.0000E+00  0.2000E+01
    -19.671  0.0000E+00  0.2000E+01
    -19.580  0.0000E+00  0.2000E+01
    -19.489  0.0000E+00  0.2000E+01
    -19.398  0.0000E+00  0.2000E+01
    -19.307  0.0000E+00  0.2000E+01
    -19.215  0.0000E+00  0.2000E+01
    -19.124  0.0000E+00  0.2000E+01
    -19.033  0.0000E+00  0.2000E+01
    -18.942  0.0000E+00  0.2000E+01
    -18.851  0.0000E+00  0.2000E+01
    -18.760  0.0000E+00  0.2000E+01
    -18.669  0.0000E+00  0.2000E+01
    -18.578  0.0000E+00  0.2000E+01
    -18.487  0.0000E+00  0.2000E+01
    -18.396  0.0000E+00  0.2000E+01
    -18.305  0.0000E+00  0.2000E+01
    -18.214  0.0000E+00  0.2000E+01
    -18.123  0.0000E+00  0.2000E+01
    -18.032  0.0000E+00  0.2000E+01
    -17.941  0.0000E+00  0.2000E+01
    -17.850  0.0000E+00  0.2000E+01
    -17.759  0.0000E+00  0.2000E+01
    -17.668  0.0000E+00  0.2000E+01
    -17.577  0.0000E+00  0.2000E+01
    -17.486  0.0000E+00  0.2000E+01
    -17.395  0.0000E+00  0.2000E+01
    -17.304  0.0000E+00  0.2000E+01
    -17.212  0.0000E+00  0.2000E+01
    -17.121  0.0000E+00  0.2000E+01
    -17.030  0.0000E+00  0.2000E+01
    -16.939  0.0000E+00  0.2000E+01
    -16.848  0.0000E+00  0.2000E+01
    -16.757  0.0000E+00  0.2000E+01
    -16.666  0.0000E+00  0.2000E+01
    -16.575  0.0000E+00  0.2000E+01
    -16.484  0.0000E+00  0.2000E+01
    -16.393  0.0000E+00  0.2000E+01
    -16.302  0.0000E+00  0.2000E+01
    -16.211  0.0000E+00  0.2000E+01
    -16.120  0.0000E+00  0.2000E+01
    -16.029  0.0000E+00  0.2000E+01
    -15.938  0.0000E+00  0.2000E+01
    -15.847  0.0000E+00  0.2000E+01
    -15.756  0.0000E+00  0.2000E+01
    -15.665  0.0000E+00  0.2000E+01
    -15.574  0.0000E+00  0.2000E+01
    -15.483  0.0000E+00  0.2000E+01
    -15.392  0.0000E+00  0.2000E+01
    -15.301  0.0000E+00  0.2000E+01
    -15.209  0.0000E+00  0.2000E+01
    -15.118  0.0000E+00  0.2000E+01
    -15.027  0.0000E+00  0.2000E+01
    -14.936  0.0000E+00  0.2000E+01
    -14.845  0.0000E+00  0.2000E+01
    -14.754  0.0000E+00  0.2000E+01
    -14.663  0.0000E+00  0.2000E+01
    -14.572  0.0000E+00  0.2000E+01
    -14.481  0.0000E+00  0.2000E+01
    -14.390  0.0000E+00  0.2000E+01
    -14.299  0.0000E+00  0.2000E+01
    -14.208  0.0000E+00  0.2000E+01
    -14.117  0.9856E-09  0.2000E+01
    -14.026  0.1022E-02  0.2000E+01
    -13.935  0.2004E+01  0.2183E+01
    -13.844  0.1761E+02  0.3786E+01
    -13.753  0.2351E+01  0.4000E+01
    -13.662  0.1481E-02  0.4000E+01
    -13.571  0.1791E-08  0.4000E+01
    -13.480  0.0000E+00  0.4000E+01
    -13.389  0.0000E+00  0.4000E+01
    -13.297  0.0000E+00  0.4000E+01
    -13.206  0.1232E-08  0.4000E+01
    -13.115  0.1174E-02  0.4000E+01
    -13.024  0.2128E+01  0.4194E+01
    -12.933  0.1762E+02  0.5798E+01
    -12.842  0.2217E+01  0.6000E+01
    -12.751  0.1291E-02  0.6000E+01
    -12.660  0.1436E-08  0.6000E+01
    -12.569  0.0000E+00  0.6000E+01
    -12.478  0.0000E+00  0.6000E+01
    -12.387  0.0000E+00  0.6000E+01
    -12.296  0.7316E-14  0.6000E+01
    -12.205  0.4125E-06  0.6000E+01
    -12.114  0.3762E-01  0.6003E+01
    -12.023  0.7927E+01  0.6725E+01
    -11.932  0.1371E+02  0.7974E+01
    -11.841  0.2875E+00  0.8000E+01
    -11.750  0.1753E-04  0.8000E+01
    -11.659  0.1819E-11  0.8000E+01
    -11.568  0.0000E+00  0.8000E+01
    -11.477  0.0000E+00  0.8000E+01
    -11.386  0.0000E+00  0.8000E+01
    -11.294  0.0000E+00  0.8000E+01
    -11.203  0.0000E+00  0.8000E+01
    -11.112  0.0000E+00  0.8000E+01
    -11.021  0.0000E+00  0.8000E+01
    -10.930  0.0000E+00  0.8000E+01
    -10.839  0.0000E+00  0.8000E+01
    -10.748  0.0000E+00  0.8000E+01
    -10.657  0.0000E+00  0.8000E+01
    -10.566  0.0000E+00  0.8000E+01
    -10.475  0.0000E+00  0.8000E+01
    -10.384  0.0000E+00  0.8000E+01
    -10.293  0.0000E+00  0.8000E+01
    -10.202  0.0000E+00  0.8000E+01
    -10.111  0.0000E+00  0.8000E+01
    -10.020  0.0000E+00  0.8000E+01
     -9.929  0.0000E+00  0.8000E+01
     -9.838  0.0000E+00  0.8000E+01
     -9.747  0.0000E+00  0.8000E+01
     -9.656  0.0000E+00  0.8000E+01
     -9.565  0.0000E+00  0.8000E+01
     -9.474  0.0000E+00  0.8000E+01
     -9.382  0.0000E+00  0.8000E+01
     -9.291  0.0000E+00  0.8000E+01
     -9.200  0.0000E+00  0.8000E+01
     -9.109  0.0000E+00  0.8000E+01
     -9.018  0.0000E+00  0.8000E+01
     -8.927  0.0000E+00  0.8000E+01
     -8.836  0.0000E+00  0.8000E+01
     -8.745  0.0000E+00  0.8000E+01
     -8.654  0.9243E-12  0.8000E+01
     -8.563  0.1116E-04  0.8000E+01
     -8.472  0.2274E+00  0.8021E+01
     -8.381  0.1303E+02  0.9207E+01
     -8.290  0.8664E+01  0.9995E+01
     -8.199  0.5000E-01  0.1000E+02
     -8.108  0.6835E-06  0.1000E+02
     -8.017  0.1463E-13  0.1000E+02
     -7.926  0.0000E+00  0.1000E+02
     -7.835  0.0000E+00  0.1000E+02
     -7.744  0.0000E+00  0.1000E+02
     -7.653  0.0000E+00  0.1000E+02
     -7.562  0.0000E+00  0.1000E+02
     -7.471  0.0000E+00  0.1000E+02
     -7.379  0.0000E+00  0.1000E+02
     -7.288  0.0000E+00  0.1000E+02
     -7.197  0.0000E+00  0.1000E+02
     -7.106  0.0000E+00  0.1000E+02
     -7.015  0.0000E+00  0.1000E+02
     -6.924  0.0000E+00  0.1000E+02
     -6.833  0.0000E+00  0.1000E+02
     -6.742  0.0000E+00  0.1000E+02
     -6.651  0.0000E+00  0.1000E+02
     -6.560  0.8536E-14  0.1000E+02
     -6.469  0.4815E-06  0.1000E+02
     -6.378  0.4106E-01  0.1000E+02
     -6.287  0.8150E+01  0.1075E+02
     -6.196  0.1351E+02  0.1198E+02
     -6.105  0.2679E+00  0.1200E+02
     -6.014  0.1529E-04  0.1200E+02
     -5.923  0.3106E-09  0.1200E+02
     -5.832  0.4929E-03  0.1200E+02
     -5.741  0.1451E+01  0.1213E+02
     -5.650  0.1739E+02  0.1372E+02
     -5.559  0.3125E+01  0.1400E+02
     -5.468  0.2940E-02  0.1400E+02
     -5.376  0.5463E-08  0.1400E+02
     -5.285  0.0000E+00  0.1400E+02
     -5.194  0.0000E+00  0.1400E+02
     -5.103  0.0000E+00  0.1400E+02
     -5.012  0.0000E+00  0.1400E+02
     -4.921  0.0000E+00  0.1400E+02
     -4.830  0.0000E+00  0.1400E+02
     -4.739  0.0000E+00  0.1400E+02
     -4.648  0.0000E+00  0.1400E+02
     -4.557  0.0000E+00  0.1400E+02
     -4.466  0.0000E+00  0.1400E+02
     -4.375  0.0000E+00  0.1400E+02
     -4.284  0.0000E+00  0.1400E+02
     -4.193  0.0000E+00  0.1400E+02
     -4.102  0.0000E+00  0.1400E+02
     -4.011  0.0000E+00  0.1400E+02
     -3.920  0.0000E+00  0.1400E+02
     -3.829  0.0000E+00  0.1400E+02
     -3.738  0.0000E+00  0.1400E+02
     -3.647  0.0000E+00  0.1400E+02
     -3.556  0.0000E+00  0.1400E+02
     -3.464  0.0000E+00  0.1400E+02
     -3.373  0.0000E+00  0.1400E+02
     -3.282  0.0000E+00  0.1400E+02
     -3.191  0.0000E+00  0.1400E+02
     -3.100  0.0000E+00  0.1400E+02
     -3.009  0.0000E+00  0.1400E+02
     -2.918  0.0000E+00  0.1400E+02
     -2.827  0.0000E+00  0.1400E+02
     -2.736  0.0000E+00  0.1400E+02
     -2.645  0.0000E+00  0.1400E+02
     -2.554  0.0000E+00  0.1400E+02
     -2.463  0.0000E+00  0.1400E+02
     -2.372  0.0000E+00  0.1400E+02
     -2.281  0.0000E+00  0.1400E+02
     -2.190  0.0000E+00  0.1400E+02
     -2.099  0.0000E+00  0.1400E+02
     -2.008  0.0000E+00  0.1400E+02
     -1.917  0.0000E+00  0.1400E+02
     -1.826  0.0000E+00  0.1400E+02
     -1.735  0.2989E-09  0.1400E+02
     -1.644  0.4826E-03  0.1400E+02
     -1.553  0.1437E+01  0.1413E+02
     -1.461  0.1738E+02  0.1571E+02
     -1.370  0.3150E+01  0.1600E+02
     -1.279  0.2997E-02  0.1600E+02
     -1.188  0.5637E-08  0.1600E+02
     -1.097  0.0000E+00  0.1600E+02
     -1.006  0.0000E+00  0.1600E+02
     -0.915  0.0000E+00  0.1600E+02
     -0.824  0.0000E+00  0.1600E+02
     -0.733  0.0000E+00  0.1600E+02
     -0.642  0.0000E+00  0.1600E+02
     -0.551  0.0000E+00  0.1600E+02
     -0.460  0.0000E+00  0.1600E+02
     -0.369  0.0000E+00  0.1600E+02
     -0.278  0.0000E+00  0.1600E+02
     -0.187  0.2458E-08  0.1600E+02
     -0.096  0.1802E-02  0.1600E+02
     -0.005  0.2624E+01  0.1624E+02
      0.086  0.3115E+02  0.1908E+02
      0.177  0.3097E+02  0.2189E+02
      0.268  0.1156E+01  0.2200E+02
      0.359  0.3039E-03  0.2200E+02
      0.451  0.6502E+00  0.2206E+02
      0.542  0.1592E+02  0.2351E+02
      0.633  0.7413E+01  0.2418E+02
      0.724  0.1766E+02  0.2579E+02
      0.815  0.9817E+01  0.2669E+02
      0.906  0.1451E+02  0.2801E+02
      0.997  0.1496E+02  0.2937E+02
      1.088  0.6917E+01  0.3000E+02
      1.179  0.3854E+01  0.3035E+02
      1.270  0.1702E+02  0.3190E+02
      1.361  0.1112E+01  0.3200E+02
      1.452  0.2756E-03  0.3200E+02
      1.543  0.1239E-09  0.3200E+02
      1.634  0.0000E+00  0.3200E+02
      1.725  0.0000E+00  0.3200E+02
      1.816  0.0000E+00  0.3200E+02
      1.907  0.0000E+00  0.3200E+02
      1.998  0.0000E+00  0.3200E+02
      2.089  0.0000E+00  0.3200E+02
      2.180  0.0000E+00  0.3200E+02
      2.271  0.0000E+00  0.3200E+02
      2.362  0.0000E+00  0.3200E+02
      2.454  0.0000E+00  0.3200E+02
