    8    8    1    1
  0.2160000E+03  0.1200000E-08  0.1200000E-08  0.1200000E-08  0.5000000E-15
   1.0000000000000000E-004
  CAR 
 13-Butadiene                            
     14      1     16

  0.1262379E-14  0.1262379E-14  0.1262379E-14  0.1000000E+01
      1        -23.618830   1.000000
      2        -13.887684   1.000000
      3        -12.978413   1.000000
      4        -12.010406   1.000000
      5         -8.390244   1.000000
      6         -6.275453   1.000000
      7         -5.687408   1.000000
      8         -1.499103   0.000000
      9          0.037484   0.000000
     10          0.092586   0.000000
     11          0.117182   0.000000
     12          0.517215   0.000000
     13          0.679465   0.000000
     14          0.829017   0.000000
     15          0.979836   0.000000
     16          1.211990   0.000000
