       N       E                     dE             d eps       ncg     rms          rms(c)
DAV:   1     0.317443052740E+02    0.31744E+02   -0.32308E+03    48   0.304E+02
DAV:   2    -0.275437665554E+02   -0.59288E+02   -0.58510E+02    40   0.918E+01
DAV:   3    -0.386240588033E+02   -0.11080E+02   -0.11009E+02    48   0.456E+01
DAV:   4    -0.389411398963E+02   -0.31708E+00   -0.31687E+00    48   0.887E+00
DAV:   5    -0.389416994532E+02   -0.55956E-03   -0.55950E-03    56   0.363E-01    0.814E+00
DAV:   6    -0.364348440211E+02    0.25069E+01   -0.38898E+00    48   0.937E+00    0.407E+00
DAV:   7    -0.356911161950E+02    0.74373E+00   -0.13291E+00    56   0.470E+00    0.203E+00
DAV:   8    -0.354324600646E+02    0.25866E+00   -0.50760E-01    56   0.360E+00    0.639E-01
DAV:   9    -0.354186693222E+02    0.13791E-01   -0.69768E-02    48   0.130E+00    0.388E-01
DAV:  10    -0.354098419827E+02    0.88273E-02   -0.22589E-02    40   0.685E-01    0.191E-01
DAV:  11    -0.354149416675E+02   -0.50997E-02   -0.76622E-03    48   0.446E-01    0.154E-01
DAV:  12    -0.354305612373E+02   -0.15620E-01   -0.11771E-02    48   0.427E-01    0.104E-01
DAV:  13    -0.354393945692E+02   -0.88333E-02   -0.21282E-03    48   0.184E-01    0.571E-02
DAV:  14    -0.354443981185E+02   -0.50035E-02   -0.18435E-03    48   0.187E-01    0.458E-02
DAV:  15    -0.354481265583E+02   -0.37284E-02   -0.86586E-04    48   0.139E-01    0.137E-02
DAV:  16    -0.354488617547E+02   -0.73520E-03   -0.99684E-05    48   0.464E-02    0.131E-02
DAV:  17    -0.354495674457E+02   -0.70569E-03   -0.55868E-05    40   0.319E-02    0.693E-03
DAV:  18    -0.354497037633E+02   -0.13632E-03   -0.12274E-05    56   0.155E-02    0.428E-03
DAV:  19    -0.354498169190E+02   -0.11316E-03   -0.82095E-06    32   0.122E-02    0.263E-03
DAV:  20    -0.354498418902E+02   -0.24971E-04   -0.10307E-06    40   0.473E-03    0.187E-03
DAV:  21    -0.354498533677E+02   -0.11477E-04   -0.10814E-06    48   0.513E-03    0.816E-04
DAV:  22    -0.354498603415E+02   -0.69739E-05   -0.15017E-07    48   0.202E-03
   1 F= -.35449860E+02 E0= -.35449860E+02  d E =-.143715E-10
