<?xml version="1.0" encoding="ISO-8859-1"?>
<modeling>
 <generator>
  <i name="program" type="string">vasp </i>
  <i name="version" type="string">6.4.2  </i>
  <i name="subversion" type="string">20Jul23 (build Dec 17 2024 10:23:20) complex                          parallel </i>
  <i name="platform" type="string">LinuxGNU </i>
  <i name="date" type="string">2025 05 06 </i>
  <i name="time" type="string">16:03:14 </i>
 </generator>
 <incar>
  <i type="string" name="SYSTEM">13-Butadiene</i>
  <i type="int" name="ISTART">     0</i>
  <i type="string" name="PREC">Normal</i>
  <i type="int" name="NSIM">     4</i>
  <i type="int" name="ISPIN">     1</i>
  <i type="int" name="ICHARG">     2</i>
  <i name="EDIFF">      0.00001000</i>
  <i name="ENCUT">    300.00000000</i>
  <i type="logical" name="LPLANE"> T  </i>
  <i type="int" name="ISMEAR">     0</i>
  <i name="SIGMA">      0.05000000</i>
  <i type="logical" name="KGAMMA"> F  </i>
  <i type="int" name="NWRITE">     2</i>
  <i type="logical" name="LWAVE"> F  </i>
  <i type="logical" name="LCHARG"> F  </i>
  <i type="logical" name="LSCALU"> F  </i>
  <i type="string" name="GGA">PE</i>
 </incar>
 <primitive_cell>
  <structure name="primitive_cell" >
   <crystal>
    <varray name="basis" >
     <v>      12.00000000       0.00000000       0.00000000 </v>
     <v>       0.00000000      12.00000000       0.00000000 </v>
     <v>       0.00000000       0.00000000      12.00000000 </v>
    </varray>
    <i name="volume">   1728.00000000 </i>
    <varray name="rec_basis" >
     <v>       0.08333333       0.00000000       0.00000000 </v>
     <v>       0.00000000       0.08333333       0.00000000 </v>
     <v>       0.00000000       0.00000000       0.08333333 </v>
    </varray>
   </crystal>
   <varray name="positions" >
    <v>       0.44503300       0.47862862       0.48298811 </v>
    <v>       0.57278485       0.40290590       0.59656722 </v>
    <v>       0.57181793       0.53683508       0.62037578 </v>
    <v>       0.63965541       0.48145719       0.50211709 </v>
    <v>       0.46595464       0.44579600       0.37962422 </v>
    <v>       0.36034459       0.41627683       0.53829924 </v>
    <v>       0.40871514       0.59709410       0.47495555 </v>
    <v>       0.57098501       0.47996558       0.55301222 </v>
   </varray>
  </structure>
  <varray name="primitive_index" >
   <v type="int" >        1 </v>
   <v type="int" >        2 </v>
   <v type="int" >        3 </v>
   <v type="int" >        4 </v>
   <v type="int" >        5 </v>
   <v type="int" >        6 </v>
   <v type="int" >        7 </v>
   <v type="int" >        8 </v>
  </varray>
 </primitive_cell>
 <kpoints>
  <generation param="Gamma">
   <v type="int" name="divisions">       1        1        1 </v>
   <v name="usershift">      0.00000000       0.00000000       0.00000000 </v>
   <v name="genvec1">      1.00000000       0.00000000       0.00000000 </v>
   <v name="genvec2">      0.00000000       1.00000000       0.00000000 </v>
   <v name="genvec3">      0.00000000       0.00000000       1.00000000 </v>
   <v name="shift">      0.00000000       0.00000000       0.00000000 </v>
  </generation>
  <varray name="kpointlist" >
   <v>       0.00000000       0.00000000       0.00000000 </v>
  </varray>
  <varray name="weights" >
   <v>       1.00000000 </v>
  </varray>
 </kpoints>
 <parameters>
  <separator name="general" >
   <i type="string" name="SYSTEM">13-Butadiene</i>
   <i type="logical" name="LCOMPAT"> F  </i>
  </separator>
  <separator name="electronic" >
   <i type="string" name="PREC">normal</i>
   <i name="ENMAX">    300.00000000</i>
   <i name="ENAUG">    627.11200000</i>
   <i name="EDIFF">      0.00001000</i>
   <i type="int" name="IALGO">    38</i>
   <i type="int" name="IWAVPR">    10</i>
   <i type="int" name="NBANDS">    16</i>
   <i type="int" name="NBANDSLOW">    -1</i>
   <i type="int" name="NBANDSHIGH">    -1</i>
   <i name="NELECT">     14.00000000</i>
   <i type="int" name="TURBO">     0</i>
   <i type="int" name="IRESTART">     0</i>
   <i type="int" name="NREBOOT">     0</i>
   <i type="int" name="NMIN">     0</i>
   <i name="EREF">      0.00000000</i>
   <separator name="electronic smearing" >
    <i type="int" name="ISMEAR">     0</i>
    <i name="SIGMA">      0.05000000</i>
    <i name="KSPACING">      0.50000000</i>
    <i type="logical" name="KGAMMA"> F  </i>
    <i type="logical" name="KBLOWUP"> T  </i>
   </separator>
   <separator name="electronic projectors" >
    <i type="logical" name="LREAL"> F  </i>
    <v name="ROPT">      0.00000000      0.00000000      0.00000000</v>
    <i type="int" name="LMAXPAW">  -100</i>
    <i type="int" name="LMAXMIX">     2</i>
    <i type="logical" name="NLSPLINE"> F  </i>
   </separator>
   <separator name="electronic startup" >
    <i type="int" name="ISTART">     0</i>
    <i type="int" name="ICHARG">     2</i>
    <i type="int" name="INIWAV">     1</i>
   </separator>
   <separator name="electronic spin" >
    <i type="int" name="ISPIN">     1</i>
    <i type="logical" name="LNONCOLLINEAR"> F  </i>
    <v name="MAGMOM">      1.00000000      1.00000000      1.00000000      1.00000000      1.00000000      1.00000000      1.00000000      1.00000000</v>
    <i name="NUPDOWN">     -1.00000000</i>
    <i type="logical" name="LSORBIT"> F  </i>
    <v name="SAXIS">      0.00000000      0.00000000      1.00000000</v>
    <i type="logical" name="LSPIRAL"> F  </i>
    <v name="QSPIRAL">      0.00000000      0.00000000      0.00000000</v>
    <i type="logical" name="LZEROZ"> F  </i>
   </separator>
   <separator name="electronic exchange-correlation" >
    <i type="logical" name="LASPH"> F  </i>
    <i type="logical" name="LMETAGGA"> F  </i>
   </separator>
   <separator name="electronic convergence" >
    <i type="int" name="NELM">    60</i>
    <i type="int" name="NELMDL">    -5</i>
    <i type="int" name="NELMIN">     2</i>
    <i name="ENINI">    300.00000000</i>
    <separator name="electronic convergence detail" >
     <i type="logical" name="LDIAG"> T  </i>
     <i type="logical" name="LSUBROT"> F  </i>
     <i name="WEIMIN">      0.00000000</i>
     <i name="EBREAK">      0.00000016</i>
     <i name="DEPER">      0.30000000</i>
     <i type="int" name="NRMM">     4</i>
     <i name="TIME">      0.40000000</i>
    </separator>
   </separator>
   <separator name="electronic mixer" >
    <i name="AMIX">      0.40000000</i>
    <i name="BMIX">      1.00000000</i>
    <i name="AMIN">      0.10000000</i>
    <i name="AMIX_MAG">      1.60000000</i>
    <i name="BMIX_MAG">      1.00000000</i>
    <separator name="electronic mixer details" >
     <i type="int" name="IMIX">     4</i>
     <i type="logical" name="MIXFIRST"> F  </i>
     <i type="int" name="MAXMIX">   -45</i>
     <i name="WC">    100.00000000</i>
     <i type="int" name="INIMIX">     1</i>
     <i type="int" name="MIXPRE">     1</i>
     <i type="int" name="MREMOVE">     5</i>
    </separator>
   </separator>
   <separator name="electronic dipolcorrection" >
    <i type="logical" name="LDIPOL"> F  </i>
    <i type="logical" name="LMONO"> F  </i>
    <i type="int" name="IDIPOL">     0</i>
    <i name="EPSILON">      1.00000000</i>
    <v name="DIPOL">   -100.00000000   -100.00000000   -100.00000000</v>
    <i name="EFIELD">      0.00000000</i>
   </separator>
  </separator>
  <separator name="grids" >
   <i type="int" name="NGX">    54</i>
   <i type="int" name="NGY">    54</i>
   <i type="int" name="NGZ">    54</i>
   <i type="int" name="NGXF">   108</i>
   <i type="int" name="NGYF">   108</i>
   <i type="int" name="NGZF">   108</i>
   <i type="logical" name="ADDGRID"> F  </i>
  </separator>
  <separator name="ionic" >
   <i type="int" name="NSW">     0</i>
   <i type="int" name="IBRION">    -1</i>
   <i type="int" name="MDALGO">     0</i>
   <i type="int" name="ISIF">     2</i>
   <i name="PSTRESS">      0.00000000</i>
   <i name="EDIFFG">      0.00010000</i>
   <i type="int" name="NFREE">     0</i>
   <i name="POTIM">      0.50000000</i>
   <i name="SMASS">     -3.00000000</i>
   <i name="SCALEE">      1.00000000</i>
  </separator>
  <separator name="ionic md" >
   <i name="TEBEG">      0.00010000</i>
   <i name="TEEND">      0.00010000</i>
   <i type="int" name="NBLOCK">     1</i>
   <i type="int" name="KBLOCK">     1</i>
   <i type="int" name="NPACO">   256</i>
   <i name="APACO">     10.00000000</i>
  </separator>
  <separator name="symmetry" >
   <i type="int" name="ISYM">     2</i>
   <i name="SYMPREC">      0.00001000</i>
  </separator>
  <separator name="dos" >
   <i type="int" name="LORBIT">     0</i>
   <v name="RWIGS">     -1.00000000     -1.00000000     -1.00000000</v>
   <i type="int" name="NEDOS">   301</i>
   <i name="EMIN">     10.00000000</i>
   <i name="EMAX">    -10.00000000</i>
   <i name="EFERMI">      0.00000000</i>
  </separator>
  <separator name="writing" >
   <i type="int" name="NWRITE">     2</i>
   <i type="logical" name="LWAVE"> F  </i>
   <i type="logical" name="LDOWNSAMPLE"> F  </i>
   <i type="logical" name="LCHARG"> F  </i>
   <i type="logical" name="LPARD"> F  </i>
   <i type="logical" name="LVTOT"> F  </i>
   <i type="logical" name="LVHAR"> F  </i>
   <i type="logical" name="LELF"> F  </i>
   <i type="logical" name="LOPTICS"> F  </i>
   <v name="STM">      0.00000000      0.00000000      0.00000000      0.00000000      0.00000000      0.00000000      0.00000000</v>
  </separator>
  <separator name="performance" >
   <i type="int" name="NPAR">     8</i>
   <i type="int" name="NSIM">     4</i>
   <i type="int" name="NBLK">    -1</i>
   <i type="logical" name="LPLANE"> T  </i>
   <i type="logical" name="LSCALAPACK"> T  </i>
   <i type="logical" name="LSCAAWARE"> F  </i>
   <i type="logical" name="LSCALU"> F  </i>
   <i type="logical" name="LASYNC"> F  </i>
   <i type="logical" name="LORBITALREAL"> F  </i>
  </separator>
  <separator name="miscellaneous" >
   <i type="int" name="IDIOT">     3</i>
   <i type="int" name="PHON_NSTRUCT">    -1</i>
   <i type="logical" name="LMUSIC"> F  </i>
   <v name="POMASS">     10.81100000      1.00000000     14.00100000</v>
   <v name="DARWINR">      0.00000000      0.00000000      0.00000000</v>
   <v name="DARWINV">      1.00000000      1.00000000      1.00000000</v>
   <i type="logical" name="LCORR"> T  </i>
  </separator>
  <i type="logical" name="GGA_COMPAT"> T  </i>
  <i type="logical" name="LBERRY"> F  </i>
  <i type="int" name="ICORELEVEL">     0</i>
  <i type="logical" name="LDAU"> F  </i>
  <i type="int" name="I_CONSTRAINED_M">     0</i>
  <separator name="electronic exchange-correlation" >
   <i type="string" name="GGA">PE</i>
   <i type="int" name="VOSKOWN">     0</i>
   <i type="logical" name="LHFCALC"> F  </i>
   <i type="string" name="PRECFOCK"></i>
   <i type="logical" name="LSYMGRAD"> F  </i>
   <i type="logical" name="LHFONE"> F  </i>
   <i type="logical" name="LRHFCALC"> F  </i>
   <i type="logical" name="LTHOMAS"> F  </i>
   <i type="logical" name="LMODELHF"> F  </i>
   <i type="logical" name="LFOCKACE"> F  </i>
   <i name="ENCUT4O">     -1.00000000</i>
   <i type="int" name="EXXOEP">     0</i>
   <i type="int" name="FOURORBIT">     0</i>
   <i name="AEXX">      0.00000000</i>
   <i name="HFALPHA">      0.00000000</i>
   <i name="MCALPHA">      0.00000000</i>
   <i name="ALDAX">      1.00000000</i>
   <i name="AGGAX">      1.00000000</i>
   <i name="ALDAC">      1.00000000</i>
   <i name="AGGAC">      1.00000000</i>
   <i type="int" name="NKREDX">     1</i>
   <i type="int" name="NKREDY">     1</i>
   <i type="int" name="NKREDZ">     1</i>
   <i type="logical" name="SHIFTRED"> F  </i>
   <i type="logical" name="ODDONLY"> F  </i>
   <i type="logical" name="EVENONLY"> F  </i>
   <i type="int" name="LMAXFOCK">     0</i>
   <i type="int" name="NMAXFOCKAE">     0</i>
   <i type="logical" name="LFOCKAEDFT"> F  </i>
   <i name="HFSCREEN">      0.00000000</i>
   <i name="HFSCREENC">      0.00000000</i>
   <i type="int" name="NBANDSGWLOW">     0</i>
  </separator>
  <separator name="vdW DFT" >
   <i type="logical" name="LUSE_VDW"> F  </i>
   <i type="int" name="IVDW_NL">     1</i>
   <i type="logical" name="LSPIN_VDW"> F  </i>
   <i name="Zab_VDW">     -0.84910000</i>
   <i name="PARAM1">      0.12340000</i>
   <i name="PARAM2">      1.00000000</i>
   <i name="PARAM3">      0.00000000</i>
  </separator>
  <separator name="model GW" >
   <i type="int" name="MODEL_GW">     0</i>
   <i name="MODEL_EPS0">    129.60000000</i>
   <i name="MODEL_ALPHA">      1.00000000</i>
  </separator>
  <separator name="linear response parameters" >
   <i type="logical" name="LEPSILON"> F  </i>
   <i type="logical" name="LRPA"> F  </i>
   <i type="logical" name="LNABLA"> F  </i>
   <i type="logical" name="LVEL"> F  </i>
   <i name="CSHIFT">      0.10000000</i>
   <i name="OMEGAMAX">     -1.00000000</i>
   <i name="DEG_THRESHOLD">      0.00200000</i>
   <i name="RTIME">     -0.10000000</i>
   <i name="WPLASMAI">      0.00000000</i>
   <v name="DFIELD">      0.00000000      0.00000000      0.00000000</v>
   <v name="WPLASMA">      0.00000000      0.00000000      0.00000000      0.00000000      0.00000000      0.00000000      0.00000000      0.00000000      0.00000000</v>
  </separator>
  <separator name="orbital magnetization" >
   <i type="logical" name="NUCIND"> F  </i>
   <v name="MAGPOS">      0.00000000      0.00000000      0.00000000</v>
   <i type="logical" name="LNICSALL"> T  </i>
   <i type="logical" name="ORBITALMAG"> F  </i>
   <i type="logical" name="LMAGBLOCH"> F  </i>
   <i type="logical" name="LCHIMAG"> F  </i>
   <i type="logical" name="LGAUGE"> T  </i>
   <i type="int" name="MAGATOM">     0</i>
   <v name="MAGDIPOL">      0.00000000      0.00000000      0.00000000</v>
   <v name="AVECCONST">      0.00000000      0.00000000      0.00000000</v>
  </separator>
  <separator name="response functions" >
   <i type="logical" name="LALL_IN_ONE"> F  </i>
   <i type="int" name="IALL_IN_ONE">    -1</i>
   <i type="int" name="NBANDS_WAVE">    -1</i>
   <i type="logical" name="LFINITE_TEMPERATURE"> F  </i>
   <i type="logical" name="LADDER"> F  </i>
   <i type="logical" name="LRPAFORCE"> F  </i>
   <i type="logical" name="LFXC"> F  </i>
   <i type="logical" name="LHARTREE"> T  </i>
   <i type="int" name="IBSE">     0</i>
   <v type="int" name="KPOINT">    -1     0     0     0</v>
   <i type="logical" name="LTCTC"> F  </i>
   <i type="logical" name="LTCTE"> F  </i>
   <i type="logical" name="LTETE"> F  </i>
   <i type="logical" name="LTRIPLET"> F  </i>
   <i type="logical" name="LFXCEPS"> F  </i>
   <i type="logical" name="LFXHEG"> F  </i>
   <i type="int" name="NATURALO">     2</i>
   <i type="logical" name="LHOLEGF"> F  </i>
   <i type="logical" name="L2ORDER"> F  </i>
   <i type="logical" name="LDMP1"> F  </i>
   <i type="logical" name="LMP2LT"> F  </i>
   <i type="logical" name="LSMP2LT"> F  </i>
   <i type="logical" name="LGWLF"> F  </i>
   <i name="ENCUTGW">     -1.60000002</i>
   <i name="ENCUTGWSOFT">     -1.60000002</i>
   <i name="ENCUTLF">     -1.00000000</i>
   <i type="logical" name="LESF_SPLINES"> F  </i>
   <i type="int" name="LMAXMP2">    -1</i>
   <i name="SCISSOR">      0.00000000</i>
   <i type="int" name="NOMEGA">     0</i>
   <i type="int" name="NOMEGAR">     0</i>
   <i type="int" name="NBANDSGW">    -1</i>
   <i type="int" name="NBANDSO">    -1</i>
   <i type="int" name="NBANDSV">    -1</i>
   <i type="int" name="NELMGW">     1</i>
   <i type="int" name="NELMHF">     1</i>
   <i type="int" name="DIM">     3</i>
   <i type="int" name="IESPILON">     4</i>
   <i type="int" name="ANTIRES">     0</i>
   <i name="OMEGAMAX">    -30.00000000</i>
   <i name="OMEGAMIN">    -30.00000000</i>
   <i name="OMEGATL">   -200.00000000</i>
   <i type="int" name="OMEGAGRID">     0</i>
   <i name="CSHIFT">     -0.10000000</i>
   <i type="logical" name="LSELFENERGY"> F  </i>
   <i type="logical" name="LSPECTRAL"> F  </i>
   <i type="logical" name="LSPECTRALGW"> F  </i>
   <i type="logical" name="LSINGLES"> F  </i>
   <i type="logical" name="LFERMIGW"> F  </i>
   <i type="logical" name="ODDONLYGW"> F  </i>
   <i type="logical" name="EVENONLYGW"> F  </i>
   <i type="int" name="NKREDLFX">     1</i>
   <i type="int" name="NKREDLFY">     1</i>
   <i type="int" name="NKREDLFZ">     1</i>
   <i type="int" name="MAXMEM">  2800</i>
   <i type="int" name="TELESCOPE">     0</i>
   <i type="int" name="NTAUPAR">    -1</i>
   <i type="int" name="NOMEGAPAR">    -1</i>
   <i name="DAMP_NEWTON">      0.80000001</i>
   <i name="LAMBDA">      1.00000000</i>
  </separator>
  <separator name="External order field" >
   <i name="OFIELD_KAPPA">      0.00000000</i>
   <v name="OFIELD_K">      0.00000000      0.00000000      0.00000000</v>
   <i name="OFIELD_Q6_NEAR">      0.00000000</i>
   <i name="OFIELD_Q6_FAR">      0.00000000</i>
   <i name="OFIELD_A">      0.00000000</i>
  </separator>
  <separator name="optional k-points parameters" >
   <i type="int" name="KPOINTS_OPT_MODE">     1</i>
   <i type="logical" name="LKPOINTS_OPT"> F  </i>
  </separator>
 </parameters>
 <atominfo>
  <atoms>       8 </atoms>
  <types>       3 </types>
  <array name="atoms" >
   <dimension dim="1">ion</dimension>
   <field type="string">element</field>
   <field type="int">atomtype</field>
   <set>
    <rc><c>B </c><c>   1</c></rc>
    <rc><c>H </c><c>   2</c></rc>
    <rc><c>H </c><c>   2</c></rc>
    <rc><c>H </c><c>   2</c></rc>
    <rc><c>H </c><c>   2</c></rc>
    <rc><c>H </c><c>   2</c></rc>
    <rc><c>H </c><c>   2</c></rc>
    <rc><c>N </c><c>   3</c></rc>
   </set>
  </array>
  <array name="atomtypes" >
   <dimension dim="1">type</dimension>
   <field type="int">atomspertype</field>
   <field type="string">element</field>
   <field>mass</field>
   <field>valence</field>
   <field type="string">pseudopotential</field>
   <set>
    <rc><c>   1</c><c>B </c><c>     10.81100000</c><c>      3.00000000</c><c> PAW_PBE B 06Sep2000                    </c></rc>
    <rc><c>   6</c><c>H </c><c>      1.00000000</c><c>      1.00000000</c><c> PAW_PBE H 15Jun2001                    </c></rc>
    <rc><c>   1</c><c>N </c><c>     14.00100000</c><c>      5.00000000</c><c> PAW_PBE N 08Apr2002                    </c></rc>
   </set>
  </array>
 </atominfo>
 <structure name="initialpos" >
  <crystal>
   <varray name="basis" >
    <v>      12.00000000       0.00000000       0.00000000 </v>
    <v>       0.00000000      12.00000000       0.00000000 </v>
    <v>       0.00000000       0.00000000      12.00000000 </v>
   </varray>
   <i name="volume">   1728.00000000 </i>
   <varray name="rec_basis" >
    <v>       0.08333333       0.00000000       0.00000000 </v>
    <v>       0.00000000       0.08333333       0.00000000 </v>
    <v>       0.00000000       0.00000000       0.08333333 </v>
   </varray>
  </crystal>
  <varray name="positions" >
   <v>       0.44503300       0.47862862       0.48298811 </v>
   <v>       0.57278485       0.40290590       0.59656722 </v>
   <v>       0.57181793       0.53683508       0.62037578 </v>
   <v>       0.63965541       0.48145719       0.50211709 </v>
   <v>       0.46595464       0.44579600       0.37962422 </v>
   <v>       0.36034459       0.41627683       0.53829924 </v>
   <v>       0.40871514       0.59709410       0.47495555 </v>
   <v>       0.57098501       0.47996558       0.55301222 </v>
  </varray>
 </structure>
 <calculation>
  <scstep>
   <time name="dav">    0.03    0.03</time>
   <time name="total">    0.07    0.10</time>
   <energy>
    <i name="alphaZ">      0.46971828 </i>
    <i name="ewald">    322.78975819 </i>
    <i name="hartreedc">   -598.31627862 </i>
    <i name="XCdc">     41.38195589 </i>
    <i name="pawpsdc">    130.00478569 </i>
    <i name="pawaedc">   -132.14397453 </i>
    <i name="eentropy">     -0.00000000 </i>
    <i name="bandstr">   -142.14648898 </i>
    <i name="atom">    409.70482936 </i>
    <i name="e_fr_energy">     31.74430527 </i>
    <i name="e_wo_entrp">     31.74430527 </i>
    <i name="e_0_energy">     31.74430527 </i>
   </energy>
  </scstep>
  <scstep>
   <time name="dav">    0.02    0.02</time>
   <time name="total">    0.02    0.02</time>
   <energy>
    <i name="e_fr_energy">    -27.54376656 </i>
    <i name="e_wo_entrp">    -27.54376656 </i>
    <i name="e_0_energy">    -27.54376656 </i>
   </energy>
  </scstep>
  <scstep>
   <time name="dav">    0.02    0.02</time>
   <time name="total">    0.02    0.02</time>
   <energy>
    <i name="e_fr_energy">    -38.62405880 </i>
    <i name="e_wo_entrp">    -38.62405880 </i>
    <i name="e_0_energy">    -38.62405880 </i>
   </energy>
  </scstep>
  <scstep>
   <time name="dav">    0.02    0.02</time>
   <time name="total">    0.02    0.02</time>
   <energy>
    <i name="e_fr_energy">    -38.94113990 </i>
    <i name="e_wo_entrp">    -38.94113990 </i>
    <i name="e_0_energy">    -38.94113990 </i>
   </energy>
  </scstep>
  <scstep>
   <time name="dav">    0.03    0.03</time>
   <time name="total">    0.03    0.03</time>
   <energy>
    <i name="e_fr_energy">    -38.94169945 </i>
    <i name="e_wo_entrp">    -38.94169945 </i>
    <i name="e_0_energy">    -38.94169945 </i>
   </energy>
  </scstep>
  <scstep>
   <time name="dav">    0.02    0.02</time>
   <time name="total">    0.05    0.05</time>
   <energy>
    <i name="e_fr_energy">    -36.43484402 </i>
    <i name="e_wo_entrp">    -36.43484402 </i>
    <i name="e_0_energy">    -36.43484402 </i>
   </energy>
  </scstep>
  <scstep>
   <time name="dav">    0.03    0.03</time>
   <time name="total">    0.05    0.05</time>
   <energy>
    <i name="e_fr_energy">    -35.69111620 </i>
    <i name="e_wo_entrp">    -35.69111620 </i>
    <i name="e_0_energy">    -35.69111620 </i>
   </energy>
  </scstep>
  <scstep>
   <time name="dav">    0.03    0.03</time>
   <time name="total">    0.05    0.05</time>
   <energy>
    <i name="e_fr_energy">    -35.43246006 </i>
    <i name="e_wo_entrp">    -35.43246006 </i>
    <i name="e_0_energy">    -35.43246006 </i>
   </energy>
  </scstep>
  <scstep>
   <time name="dav">    0.02    0.02</time>
   <time name="total">    0.05    0.05</time>
   <energy>
    <i name="e_fr_energy">    -35.41866932 </i>
    <i name="e_wo_entrp">    -35.41866932 </i>
    <i name="e_0_energy">    -35.41866932 </i>
   </energy>
  </scstep>
  <scstep>
   <time name="dav">    0.02    0.02</time>
   <time name="total">    0.05    0.05</time>
   <energy>
    <i name="e_fr_energy">    -35.40984198 </i>
    <i name="e_wo_entrp">    -35.40984198 </i>
    <i name="e_0_energy">    -35.40984198 </i>
   </energy>
  </scstep>
  <scstep>
   <time name="dav">    0.03    0.03</time>
   <time name="total">    0.05    0.05</time>
   <energy>
    <i name="e_fr_energy">    -35.41494167 </i>
    <i name="e_wo_entrp">    -35.41494167 </i>
    <i name="e_0_energy">    -35.41494167 </i>
   </energy>
  </scstep>
  <scstep>
   <time name="dav">    0.03    0.03</time>
   <time name="total">    0.06    0.06</time>
   <energy>
    <i name="e_fr_energy">    -35.43056124 </i>
    <i name="e_wo_entrp">    -35.43056124 </i>
    <i name="e_0_energy">    -35.43056124 </i>
   </energy>
  </scstep>
  <scstep>
   <time name="dav">    0.03    0.03</time>
   <time name="total">    0.06    0.06</time>
   <energy>
    <i name="e_fr_energy">    -35.43939457 </i>
    <i name="e_wo_entrp">    -35.43939457 </i>
    <i name="e_0_energy">    -35.43939457 </i>
   </energy>
  </scstep>
  <scstep>
   <time name="dav">    0.03    0.03</time>
   <time name="total">    0.05    0.05</time>
   <energy>
    <i name="e_fr_energy">    -35.44439812 </i>
    <i name="e_wo_entrp">    -35.44439812 </i>
    <i name="e_0_energy">    -35.44439812 </i>
   </energy>
  </scstep>
  <scstep>
   <time name="dav">    0.02    0.02</time>
   <time name="total">    0.05    0.05</time>
   <energy>
    <i name="e_fr_energy">    -35.44812656 </i>
    <i name="e_wo_entrp">    -35.44812656 </i>
    <i name="e_0_energy">    -35.44812656 </i>
   </energy>
  </scstep>
  <scstep>
   <time name="dav">    0.02    0.02</time>
   <time name="total">    0.05    0.05</time>
   <energy>
    <i name="e_fr_energy">    -35.44886175 </i>
    <i name="e_wo_entrp">    -35.44886175 </i>
    <i name="e_0_energy">    -35.44886175 </i>
   </energy>
  </scstep>
  <scstep>
   <time name="dav">    0.02    0.02</time>
   <time name="total">    0.05    0.05</time>
   <energy>
    <i name="e_fr_energy">    -35.44956745 </i>
    <i name="e_wo_entrp">    -35.44956745 </i>
    <i name="e_0_energy">    -35.44956745 </i>
   </energy>
  </scstep>
  <scstep>
   <time name="dav">    0.03    0.03</time>
   <time name="total">    0.05    0.05</time>
   <energy>
    <i name="e_fr_energy">    -35.44970376 </i>
    <i name="e_wo_entrp">    -35.44970376 </i>
    <i name="e_0_energy">    -35.44970376 </i>
   </energy>
  </scstep>
  <scstep>
   <time name="dav">    0.02    0.02</time>
   <time name="total">    0.04    0.05</time>
   <energy>
    <i name="e_fr_energy">    -35.44981692 </i>
    <i name="e_wo_entrp">    -35.44981692 </i>
    <i name="e_0_energy">    -35.44981692 </i>
   </energy>
  </scstep>
  <scstep>
   <time name="dav">    0.02    0.02</time>
   <time name="total">    0.05    0.05</time>
   <energy>
    <i name="e_fr_energy">    -35.44984189 </i>
    <i name="e_wo_entrp">    -35.44984189 </i>
    <i name="e_0_energy">    -35.44984189 </i>
   </energy>
  </scstep>
  <scstep>
   <time name="dav">    0.02    0.02</time>
   <time name="total">    0.05    0.05</time>
   <energy>
    <i name="e_fr_energy">    -35.44985337 </i>
    <i name="e_wo_entrp">    -35.44985337 </i>
    <i name="e_0_energy">    -35.44985337 </i>
   </energy>
  </scstep>
  <scstep>
   <time name="dav">    0.02    0.02</time>
   <time name="total">    0.05    0.05</time>
   <energy>
    <i name="alphaZ">      0.46971828 </i>
    <i name="ewald">    322.78975819 </i>
    <i name="hartreedc">   -644.74869295 </i>
    <i name="XCdc">     44.60333779 </i>
    <i name="pawpsdc">    200.66756431 </i>
    <i name="pawaedc">   -203.23949946 </i>
    <i name="eentropy">     -0.00000000 </i>
    <i name="bandstr">   -165.69687586 </i>
    <i name="atom">    409.70482936 </i>
    <i name="e_fr_energy">    -35.44986034 </i>
    <i name="e_wo_entrp">    -35.44986034 </i>
    <i name="e_0_energy">    -35.44986034 </i>
   </energy>
  </scstep>
  <structure>
   <crystal>
    <varray name="basis" >
     <v>      12.00000000       0.00000000       0.00000000 </v>
     <v>       0.00000000      12.00000000       0.00000000 </v>
     <v>       0.00000000       0.00000000      12.00000000 </v>
    </varray>
    <i name="volume">   1728.00000000 </i>
    <varray name="rec_basis" >
     <v>       0.08333333       0.00000000       0.00000000 </v>
     <v>       0.00000000       0.08333333       0.00000000 </v>
     <v>       0.00000000       0.00000000       0.08333333 </v>
    </varray>
   </crystal>
   <varray name="positions" >
    <v>       0.44503300       0.47862862       0.48298811 </v>
    <v>       0.57278485       0.40290590       0.59656722 </v>
    <v>       0.57181793       0.53683508       0.62037578 </v>
    <v>       0.63965541       0.48145719       0.50211709 </v>
    <v>       0.46595464       0.44579600       0.37962422 </v>
    <v>       0.36034459       0.41627683       0.53829924 </v>
    <v>       0.40871514       0.59709410       0.47495555 </v>
    <v>       0.57098501       0.47996558       0.55301222 </v>
   </varray>
  </structure>
  <varray name="forces" >
   <v>      -1.79431450       1.48029566      -0.86746882 </v>
   <v>       0.14767205       0.63179807      -0.70605437 </v>
   <v>       0.28252994      -0.15651028      -1.17932772 </v>
   <v>       0.06673185       0.44170781       0.07123830 </v>
   <v>      -0.17984270       0.29377245       1.82446676 </v>
   <v>       2.29339061       1.29989643      -0.99235782 </v>
   <v>       0.97955926      -2.72551721       0.37060487 </v>
   <v>      -1.79572651      -1.26544292       1.47889881 </v>
  </varray>
  <varray name="stress" >
   <v>      -8.36090280      -0.18310576       0.81122757 </v>
   <v>      -0.18310576      -9.17627737       0.37564378 </v>
   <v>       0.81122757       0.37564378      -8.22579062 </v>
  </varray>
  <energy>
   <i name="e_fr_energy">    -35.44986034 </i>
   <i name="e_wo_entrp">    -35.44986034 </i>
   <i name="e_0_energy">    -35.44986034 </i>
  </energy>
  <time name="totalsc">    1.15    1.19</time>
  <eigenvalues>
   <array>
    <dimension dim="1">band</dimension>
    <dimension dim="2">kpoint</dimension>
    <dimension dim="3">spin</dimension>
    <field>eigene</field>
    <field>occ</field>
    <set>
     <set comment="spin 1">
      <set comment="kpoint 1">
       <r>  -23.6188    1.0000 </r>
       <r>  -13.8877    1.0000 </r>
       <r>  -12.9784    1.0000 </r>
       <r>  -12.0104    1.0000 </r>
       <r>   -8.3902    1.0000 </r>
       <r>   -6.2755    1.0000 </r>
       <r>   -5.6874    1.0000 </r>
       <r>   -1.4991    0.0000 </r>
       <r>    0.0375    0.0000 </r>
       <r>    0.0926    0.0000 </r>
       <r>    0.1172    0.0000 </r>
       <r>    0.5172    0.0000 </r>
       <r>    0.6795    0.0000 </r>
       <r>    0.8290    0.0000 </r>
       <r>    0.9798    0.0000 </r>
       <r>    1.2120    0.0000 </r>
      </set>
     </set>
    </set>
   </array>
  </eigenvalues>
  <separator name="orbital magnetization" >
   <v name="MAGDIPOLOUT">      0.00000000      0.00000000      0.00000000</v>
  </separator>
  <dos>
   <i name="efermi">     -5.45611999 </i>
   <total>
    <array>
     <dimension dim="1">gridpoints</dimension>
     <dimension dim="2">spin</dimension>
     <field>energy</field>
     <field>total</field>
     <field>integrated</field>
     <set>
      <set comment="spin 1">
       <r>   -24.8604     0.0000     0.0000 </r>
       <r>   -24.7693     0.0000     0.0000 </r>
       <r>   -24.6783     0.0000     0.0000 </r>
       <r>   -24.5872     0.0000     0.0000 </r>
       <r>   -24.4962     0.0000     0.0000 </r>
       <r>   -24.4051     0.0000     0.0000 </r>
       <r>   -24.3141     0.0000     0.0000 </r>
       <r>   -24.2230     0.0000     0.0000 </r>
       <r>   -24.1320     0.0000     0.0000 </r>
       <r>   -24.0410     0.0000     0.0000 </r>
       <r>   -23.9499     0.0000     0.0000 </r>
       <r>   -23.8589     0.0000     0.0000 </r>
       <r>   -23.7678     0.0003     0.0000 </r>
       <r>   -23.6768     1.1120     0.1013 </r>
       <r>   -23.5857    17.0208     1.6509 </r>
       <r>   -23.4947     3.8289     1.9996 </r>
       <r>   -23.4036     0.0049     2.0000 </r>
       <r>   -23.3126     0.0000     2.0000 </r>
       <r>   -23.2215     0.0000     2.0000 </r>
       <r>   -23.1305     0.0000     2.0000 </r>
       <r>   -23.0394     0.0000     2.0000 </r>
       <r>   -22.9484     0.0000     2.0000 </r>
       <r>   -22.8574     0.0000     2.0000 </r>
       <r>   -22.7663     0.0000     2.0000 </r>
       <r>   -22.6753     0.0000     2.0000 </r>
       <r>   -22.5842     0.0000     2.0000 </r>
       <r>   -22.4932     0.0000     2.0000 </r>
       <r>   -22.4021     0.0000     2.0000 </r>
       <r>   -22.3111     0.0000     2.0000 </r>
       <r>   -22.2200     0.0000     2.0000 </r>
       <r>   -22.1290     0.0000     2.0000 </r>
       <r>   -22.0379     0.0000     2.0000 </r>
       <r>   -21.9469     0.0000     2.0000 </r>
       <r>   -21.8558     0.0000     2.0000 </r>
       <r>   -21.7648     0.0000     2.0000 </r>
       <r>   -21.6737     0.0000     2.0000 </r>
       <r>   -21.5827     0.0000     2.0000 </r>
       <r>   -21.4917     0.0000     2.0000 </r>
       <r>   -21.4006     0.0000     2.0000 </r>
       <r>   -21.3096     0.0000     2.0000 </r>
       <r>   -21.2185     0.0000     2.0000 </r>
       <r>   -21.1275     0.0000     2.0000 </r>
       <r>   -21.0364     0.0000     2.0000 </r>
       <r>   -20.9454     0.0000     2.0000 </r>
       <r>   -20.8543     0.0000     2.0000 </r>
       <r>   -20.7633     0.0000     2.0000 </r>
       <r>   -20.6722     0.0000     2.0000 </r>
       <r>   -20.5812     0.0000     2.0000 </r>
       <r>   -20.4901     0.0000     2.0000 </r>
       <r>   -20.3991     0.0000     2.0000 </r>
       <r>   -20.3081     0.0000     2.0000 </r>
       <r>   -20.2170     0.0000     2.0000 </r>
       <r>   -20.1260     0.0000     2.0000 </r>
       <r>   -20.0349     0.0000     2.0000 </r>
       <r>   -19.9439     0.0000     2.0000 </r>
       <r>   -19.8528     0.0000     2.0000 </r>
       <r>   -19.7618     0.0000     2.0000 </r>
       <r>   -19.6707     0.0000     2.0000 </r>
       <r>   -19.5797     0.0000     2.0000 </r>
       <r>   -19.4886     0.0000     2.0000 </r>
       <r>   -19.3976     0.0000     2.0000 </r>
       <r>   -19.3065     0.0000     2.0000 </r>
       <r>   -19.2155     0.0000     2.0000 </r>
       <r>   -19.1245     0.0000     2.0000 </r>
       <r>   -19.0334     0.0000     2.0000 </r>
       <r>   -18.9424     0.0000     2.0000 </r>
       <r>   -18.8513     0.0000     2.0000 </r>
       <r>   -18.7603     0.0000     2.0000 </r>
       <r>   -18.6692     0.0000     2.0000 </r>
       <r>   -18.5782     0.0000     2.0000 </r>
       <r>   -18.4871     0.0000     2.0000 </r>
       <r>   -18.3961     0.0000     2.0000 </r>
       <r>   -18.3050     0.0000     2.0000 </r>
       <r>   -18.2140     0.0000     2.0000 </r>
       <r>   -18.1229     0.0000     2.0000 </r>
       <r>   -18.0319     0.0000     2.0000 </r>
       <r>   -17.9408     0.0000     2.0000 </r>
       <r>   -17.8498     0.0000     2.0000 </r>
       <r>   -17.7588     0.0000     2.0000 </r>
       <r>   -17.6677     0.0000     2.0000 </r>
       <r>   -17.5767     0.0000     2.0000 </r>
       <r>   -17.4856     0.0000     2.0000 </r>
       <r>   -17.3946     0.0000     2.0000 </r>
       <r>   -17.3035     0.0000     2.0000 </r>
       <r>   -17.2125     0.0000     2.0000 </r>
       <r>   -17.1214     0.0000     2.0000 </r>
       <r>   -17.0304     0.0000     2.0000 </r>
       <r>   -16.9393     0.0000     2.0000 </r>
       <r>   -16.8483     0.0000     2.0000 </r>
       <r>   -16.7572     0.0000     2.0000 </r>
       <r>   -16.6662     0.0000     2.0000 </r>
       <r>   -16.5752     0.0000     2.0000 </r>
       <r>   -16.4841     0.0000     2.0000 </r>
       <r>   -16.3931     0.0000     2.0000 </r>
       <r>   -16.3020     0.0000     2.0000 </r>
       <r>   -16.2110     0.0000     2.0000 </r>
       <r>   -16.1199     0.0000     2.0000 </r>
       <r>   -16.0289     0.0000     2.0000 </r>
       <r>   -15.9378     0.0000     2.0000 </r>
       <r>   -15.8468     0.0000     2.0000 </r>
       <r>   -15.7557     0.0000     2.0000 </r>
       <r>   -15.6647     0.0000     2.0000 </r>
       <r>   -15.5736     0.0000     2.0000 </r>
       <r>   -15.4826     0.0000     2.0000 </r>
       <r>   -15.3916     0.0000     2.0000 </r>
       <r>   -15.3005     0.0000     2.0000 </r>
       <r>   -15.2095     0.0000     2.0000 </r>
       <r>   -15.1184     0.0000     2.0000 </r>
       <r>   -15.0274     0.0000     2.0000 </r>
       <r>   -14.9363     0.0000     2.0000 </r>
       <r>   -14.8453     0.0000     2.0000 </r>
       <r>   -14.7542     0.0000     2.0000 </r>
       <r>   -14.6632     0.0000     2.0000 </r>
       <r>   -14.5721     0.0000     2.0000 </r>
       <r>   -14.4811     0.0000     2.0000 </r>
       <r>   -14.3900     0.0000     2.0000 </r>
       <r>   -14.2990     0.0000     2.0000 </r>
       <r>   -14.2079     0.0000     2.0000 </r>
       <r>   -14.1169     0.0000     2.0000 </r>
       <r>   -14.0259     0.0010     2.0001 </r>
       <r>   -13.9348     2.0040     2.1826 </r>
       <r>   -13.8438    17.6097     3.7859 </r>
       <r>   -13.7527     2.3506     3.9999 </r>
       <r>   -13.6617     0.0015     4.0000 </r>
       <r>   -13.5706     0.0000     4.0000 </r>
       <r>   -13.4796     0.0000     4.0000 </r>
       <r>   -13.3885     0.0000     4.0000 </r>
       <r>   -13.2975     0.0000     4.0000 </r>
       <r>   -13.2064     0.0000     4.0000 </r>
       <r>   -13.1154     0.0012     4.0001 </r>
       <r>   -13.0243     2.1282     4.1939 </r>
       <r>   -12.9333    17.6192     5.7980 </r>
       <r>   -12.8423     2.2169     5.9999 </r>
       <r>   -12.7512     0.0013     6.0000 </r>
       <r>   -12.6602     0.0000     6.0000 </r>
       <r>   -12.5691     0.0000     6.0000 </r>
       <r>   -12.4781     0.0000     6.0000 </r>
       <r>   -12.3870     0.0000     6.0000 </r>
       <r>   -12.2960     0.0000     6.0000 </r>
       <r>   -12.2049     0.0000     6.0000 </r>
       <r>   -12.1139     0.0376     6.0034 </r>
       <r>   -12.0228     7.9269     6.7251 </r>
       <r>   -11.9318    13.7148     7.9738 </r>
       <r>   -11.8407     0.2875     8.0000 </r>
       <r>   -11.7497     0.0000     8.0000 </r>
       <r>   -11.6587     0.0000     8.0000 </r>
       <r>   -11.5676     0.0000     8.0000 </r>
       <r>   -11.4766     0.0000     8.0000 </r>
       <r>   -11.3855     0.0000     8.0000 </r>
       <r>   -11.2945     0.0000     8.0000 </r>
       <r>   -11.2034     0.0000     8.0000 </r>
       <r>   -11.1124     0.0000     8.0000 </r>
       <r>   -11.0213     0.0000     8.0000 </r>
       <r>   -10.9303     0.0000     8.0000 </r>
       <r>   -10.8392     0.0000     8.0000 </r>
       <r>   -10.7482     0.0000     8.0000 </r>
       <r>   -10.6571     0.0000     8.0000 </r>
       <r>   -10.5661     0.0000     8.0000 </r>
       <r>   -10.4750     0.0000     8.0000 </r>
       <r>   -10.3840     0.0000     8.0000 </r>
       <r>   -10.2930     0.0000     8.0000 </r>
       <r>   -10.2019     0.0000     8.0000 </r>
       <r>   -10.1109     0.0000     8.0000 </r>
       <r>   -10.0198     0.0000     8.0000 </r>
       <r>    -9.9288     0.0000     8.0000 </r>
       <r>    -9.8377     0.0000     8.0000 </r>
       <r>    -9.7467     0.0000     8.0000 </r>
       <r>    -9.6556     0.0000     8.0000 </r>
       <r>    -9.5646     0.0000     8.0000 </r>
       <r>    -9.4735     0.0000     8.0000 </r>
       <r>    -9.3825     0.0000     8.0000 </r>
       <r>    -9.2914     0.0000     8.0000 </r>
       <r>    -9.2004     0.0000     8.0000 </r>
       <r>    -9.1094     0.0000     8.0000 </r>
       <r>    -9.0183     0.0000     8.0000 </r>
       <r>    -8.9273     0.0000     8.0000 </r>
       <r>    -8.8362     0.0000     8.0000 </r>
       <r>    -8.7452     0.0000     8.0000 </r>
       <r>    -8.6541     0.0000     8.0000 </r>
       <r>    -8.5631     0.0000     8.0000 </r>
       <r>    -8.4720     0.2274     8.0207 </r>
       <r>    -8.3810    13.0254     9.2066 </r>
       <r>    -8.2899     8.6640     9.9954 </r>
       <r>    -8.1989     0.0500    10.0000 </r>
       <r>    -8.1078     0.0000    10.0000 </r>
       <r>    -8.0168     0.0000    10.0000 </r>
       <r>    -7.9258     0.0000    10.0000 </r>
       <r>    -7.8347     0.0000    10.0000 </r>
       <r>    -7.7437     0.0000    10.0000 </r>
       <r>    -7.6526     0.0000    10.0000 </r>
       <r>    -7.5616     0.0000    10.0000 </r>
       <r>    -7.4705     0.0000    10.0000 </r>
       <r>    -7.3795     0.0000    10.0000 </r>
       <r>    -7.2884     0.0000    10.0000 </r>
       <r>    -7.1974     0.0000    10.0000 </r>
       <r>    -7.1063     0.0000    10.0000 </r>
       <r>    -7.0153     0.0000    10.0000 </r>
       <r>    -6.9242     0.0000    10.0000 </r>
       <r>    -6.8332     0.0000    10.0000 </r>
       <r>    -6.7421     0.0000    10.0000 </r>
       <r>    -6.6511     0.0000    10.0000 </r>
       <r>    -6.5601     0.0000    10.0000 </r>
       <r>    -6.4690     0.0000    10.0000 </r>
       <r>    -6.3780     0.0411    10.0037 </r>
       <r>    -6.2869     8.1495    10.7457 </r>
       <r>    -6.1959    13.5083    11.9756 </r>
       <r>    -6.1048     0.2679    12.0000 </r>
       <r>    -6.0138     0.0000    12.0000 </r>
       <r>    -5.9227     0.0000    12.0000 </r>
       <r>    -5.8317     0.0005    12.0000 </r>
       <r>    -5.7406     1.4511    12.1322 </r>
       <r>    -5.6496    17.3869    13.7152 </r>
       <r>    -5.5585     3.1253    13.9997 </r>
       <r>    -5.4675     0.0029    14.0000 </r>
       <r>    -5.3765     0.0000    14.0000 </r>
       <r>    -5.2854     0.0000    14.0000 </r>
       <r>    -5.1944     0.0000    14.0000 </r>
       <r>    -5.1033     0.0000    14.0000 </r>
       <r>    -5.0123     0.0000    14.0000 </r>
       <r>    -4.9212     0.0000    14.0000 </r>
       <r>    -4.8302     0.0000    14.0000 </r>
       <r>    -4.7391     0.0000    14.0000 </r>
       <r>    -4.6481     0.0000    14.0000 </r>
       <r>    -4.5570     0.0000    14.0000 </r>
       <r>    -4.4660     0.0000    14.0000 </r>
       <r>    -4.3749     0.0000    14.0000 </r>
       <r>    -4.2839     0.0000    14.0000 </r>
       <r>    -4.1929     0.0000    14.0000 </r>
       <r>    -4.1018     0.0000    14.0000 </r>
       <r>    -4.0108     0.0000    14.0000 </r>
       <r>    -3.9197     0.0000    14.0000 </r>
       <r>    -3.8287     0.0000    14.0000 </r>
       <r>    -3.7376     0.0000    14.0000 </r>
       <r>    -3.6466     0.0000    14.0000 </r>
       <r>    -3.5555     0.0000    14.0000 </r>
       <r>    -3.4645     0.0000    14.0000 </r>
       <r>    -3.3734     0.0000    14.0000 </r>
       <r>    -3.2824     0.0000    14.0000 </r>
       <r>    -3.1913     0.0000    14.0000 </r>
       <r>    -3.1003     0.0000    14.0000 </r>
       <r>    -3.0092     0.0000    14.0000 </r>
       <r>    -2.9182     0.0000    14.0000 </r>
       <r>    -2.8272     0.0000    14.0000 </r>
       <r>    -2.7361     0.0000    14.0000 </r>
       <r>    -2.6451     0.0000    14.0000 </r>
       <r>    -2.5540     0.0000    14.0000 </r>
       <r>    -2.4630     0.0000    14.0000 </r>
       <r>    -2.3719     0.0000    14.0000 </r>
       <r>    -2.2809     0.0000    14.0000 </r>
       <r>    -2.1898     0.0000    14.0000 </r>
       <r>    -2.0988     0.0000    14.0000 </r>
       <r>    -2.0077     0.0000    14.0000 </r>
       <r>    -1.9167     0.0000    14.0000 </r>
       <r>    -1.8256     0.0000    14.0000 </r>
       <r>    -1.7346     0.0000    14.0000 </r>
       <r>    -1.6436     0.0005    14.0000 </r>
       <r>    -1.5525     1.4373    14.1309 </r>
       <r>    -1.4615    17.3764    15.7130 </r>
       <r>    -1.3704     3.1497    15.9997 </r>
       <r>    -1.2794     0.0030    16.0000 </r>
       <r>    -1.1883     0.0000    16.0000 </r>
       <r>    -1.0973     0.0000    16.0000 </r>
       <r>    -1.0062     0.0000    16.0000 </r>
       <r>    -0.9152     0.0000    16.0000 </r>
       <r>    -0.8241     0.0000    16.0000 </r>
       <r>    -0.7331     0.0000    16.0000 </r>
       <r>    -0.6420     0.0000    16.0000 </r>
       <r>    -0.5510     0.0000    16.0000 </r>
       <r>    -0.4600     0.0000    16.0000 </r>
       <r>    -0.3689     0.0000    16.0000 </r>
       <r>    -0.2779     0.0000    16.0000 </r>
       <r>    -0.1868     0.0000    16.0000 </r>
       <r>    -0.0958     0.0018    16.0002 </r>
       <r>    -0.0047     2.6240    16.2391 </r>
       <r>     0.0863    31.1497    19.0751 </r>
       <r>     0.1774    30.9692    21.8948 </r>
       <r>     0.2684     1.1555    22.0000 </r>
       <r>     0.3595     0.0003    22.0000 </r>
       <r>     0.4505     0.6502    22.0592 </r>
       <r>     0.5416    15.9233    23.5090 </r>
       <r>     0.6326     7.4135    24.1839 </r>
       <r>     0.7237    17.6565    25.7915 </r>
       <r>     0.8147     9.8173    26.6853 </r>
       <r>     0.9057    14.5069    28.0061 </r>
       <r>     0.9968    14.9629    29.3684 </r>
       <r>     1.0878     6.9169    29.9982 </r>
       <r>     1.1789     3.8536    30.3491 </r>
       <r>     1.2699    17.0208    31.8987 </r>
       <r>     1.3610     1.1120    32.0000 </r>
       <r>     1.4520     0.0003    32.0000 </r>
       <r>     1.5431     0.0000    32.0000 </r>
       <r>     1.6341     0.0000    32.0000 </r>
       <r>     1.7252     0.0000    32.0000 </r>
       <r>     1.8162     0.0000    32.0000 </r>
       <r>     1.9073     0.0000    32.0000 </r>
       <r>     1.9983     0.0000    32.0000 </r>
       <r>     2.0893     0.0000    32.0000 </r>
       <r>     2.1804     0.0000    32.0000 </r>
       <r>     2.2714     0.0000    32.0000 </r>
       <r>     2.3625     0.0000    32.0000 </r>
       <r>     2.4535     0.0000    32.0000 </r>
      </set>
     </set>
    </array>
   </total>
  </dos>
 </calculation>
 <structure name="finalpos" >
  <crystal>
   <varray name="basis" >
    <v>      12.00000000       0.00000000       0.00000000 </v>
    <v>       0.00000000      12.00000000       0.00000000 </v>
    <v>       0.00000000       0.00000000      12.00000000 </v>
   </varray>
   <i name="volume">   1728.00000000 </i>
   <varray name="rec_basis" >
    <v>       0.08333333       0.00000000       0.00000000 </v>
    <v>       0.00000000       0.08333333       0.00000000 </v>
    <v>       0.00000000       0.00000000       0.08333333 </v>
   </varray>
  </crystal>
  <varray name="positions" >
   <v>       0.44503300       0.47862862       0.48298811 </v>
   <v>       0.57278485       0.40290590       0.59656722 </v>
   <v>       0.57181793       0.53683508       0.62037578 </v>
   <v>       0.63965541       0.48145719       0.50211709 </v>
   <v>       0.46595464       0.44579600       0.37962422 </v>
   <v>       0.36034459       0.41627683       0.53829924 </v>
   <v>       0.40871514       0.59709410       0.47495555 </v>
   <v>       0.57098501       0.47996558       0.55301222 </v>
  </varray>
 </structure>
</modeling>
