13-Butadiene                            
           1
    12.000000    0.000000    0.000000
     0.000000   12.000000    0.000000
     0.000000    0.000000   12.000000
   B    H    N 
     1     6     1
Direct configuration=     1
   0.44503300  0.47862862  0.48298811
   0.57278485  0.40290590  0.59656722
   0.57181793  0.53683508  0.62037578
   0.63965541  0.48145719  0.50211709
   0.46595464  0.44579600  0.37962422
   0.36034459  0.41627683  0.53829924
   0.40871514  0.59709410  0.47495555
   0.57098501  0.47996558  0.55301222
