
8 atoms
3 atom types
   0.0000000000   12.0000000000 xlo xhi
   0.0000000000   12.0000000000 ylo yhi
   0.0000000000   12.0000000000 zlo zhi
   0.0000000000    0.0000000000    0.0000000000 xy xz yz

Atoms # atomic

     1      1    6.0000000000    6.0000000000    5.2930002213
     2      2    6.0000000000    6.9470000267    7.1090002060
     3      2    6.8200001717    5.5269999504    7.1090002060
     4      2    5.1799998283    5.5269999504    7.1090002060
     5      2    4.9939999580    6.5809998512    4.8940000534
     6      2    6.0000000000    4.8379998207    4.8940000534
     7      2    7.0060000420    6.5809998512    4.8940000534
     8      3    6.0000000000    6.0000000000    6.6989998817
