LAMMPS (2 Aug 2023 - Update 2)
#13 Butadiene
units           metal
boundary        p p p
atom_style      atomic

neighbor        2.0 bin
neigh_modify    delay 0 every 1 check yes

read_data       conf.lmp
Reading data file ...
  triclinic box = (0 0 0) to (12 12 12) with tilt (0 0 0)
  1 by 1 by 2 MPI processor grid
  reading atoms ...
  8 atoms
  read_data CPU = 0.003 seconds
mass            1 10.8
mass            2 1.0
mass            3 14.0

variable        sysvol          equal vol
variable        sysmass         equal mass(all)/6.0221367e+23
variable        sysdensity      equal v_sysmass/v_sysvol/1.0e-24
variable	out_freq 	equal 100

pair_style      deepmd frozen_model_1.pb frozen_model_2.pb out_file md.out out_freq 50
Summary of lammps deepmd module ...
  >>> Info of deepmd-kit:
  installed to:       /rs1/researchers/w/wjpfaend/rahul/MLP/DeePMD-kit/deepmd_cpu
  source:             v2.2.8-dirty
  source branch:      master
  source commit:      b875ea8
  source commit at:   2024-01-22 22:28:58 -0500
  support model ver.: 1.1 
  build variant:      cpu
  build with tf inc:  /rs1/researchers/w/wjpfaend/rahul/MLP/DeePMD-kit/tensorflow/lib/python3.11/site-packages/tensorflow/include;/rs1/researchers/w/wjpfaend/rahul/MLP/DeePMD-kit/tensorflow/lib/python3.11/site-packages/tensorflow/include
  build with tf lib:  /rs1/researchers/w/wjpfaend/rahul/MLP/DeePMD-kit/tensorflow/lib/python3.11/site-packages/tensorflow/libtensorflow_cc.so.2
  set tf intra_op_parallelism_threads: 0
  set tf inter_op_parallelism_threads: 0
  >>> Info of lammps module:
  use deepmd-kit at:  /rs1/researchers/w/wjpfaend/rahul/MLP/DeePMD-kit/deepmd_cpu
  source:             v2.2.8-dirty
  source branch:      master
  source commit:      b875ea8
  source commit at:   2024-01-22 22:28:58 -0500
  build float prec:   double
  build with tf inc:  /rs1/researchers/w/wjpfaend/rahul/MLP/DeePMD-kit/tensorflow/lib/python3.11/site-packages/tensorflow/include;/rs1/researchers/w/wjpfaend/rahul/MLP/DeePMD-kit/tensorflow/lib/python3.11/site-packages/tensorflow/include
  build with tf lib:  /rs1/researchers/w/wjpfaend/rahul/MLP/DeePMD-kit/tensorflow/lib/python3.11/site-packages/tensorflow/libtensorflow_cc.so.2
pair_coeff	* *

#
velocity        all create 300.0 2345678 rot no dist gaussian
fix             1 all nvt temp 300.0 300.0 0.05
#fix             2 all plumed plumedfile plumed.dat outfile PLUMED.log

timestep        0.0005
thermo_style    custom step pe ke etotal v_sysdensity temp press vol
thermo          10

dump            10 all custom 100 traj.dump id type x y z
dump		101 all xyz 20 traj.xyz
dump_modify	101 element B H N

fix		extra all print 20 "$(step), $(ke), $(pe), $(etotal), $(temp), $(press), $(vol)" file logfile screen no

restart	        25000 dump.restart

run             50000

CITE-CITE-CITE-CITE-CITE-CITE-CITE-CITE-CITE-CITE-CITE-CITE-CITE

Your simulation uses code contributions which should be cited:

- USER-DEEPMD package:

@article{Wang_ComputPhysCommun_2018_v228_p178,
  author = {Wang, Han and Zhang, Linfeng and Han, Jiequn and E, Weinan},
  doi = {10.1016/j.cpc.2018.03.016},
  url = {https://doi.org/10.1016/j.cpc.2018.03.016},
  year = 2018,
  month = {jul},
  publisher = {Elsevier {BV}},
  volume = 228,
  journal = {Comput. Phys. Commun.},
  title = {{DeePMD-kit: A deep learning package for many-body potential energy representation and molecular dynamics}},
  pages = {178--184}
}
@misc{Zeng_JChemPhys_2023_v159_p054801,
  title  = {{DeePMD-kit v2: A software package for deep potential models}},
  author =   {Jinzhe Zeng and Duo Zhang and Denghui Lu and Pinghui Mo and Zeyu Li
         and Yixiao Chen and Mari{\'a}n Rynik and Li'ang Huang and Ziyao Li and 
         Shaochen Shi and Yingze Wang and Haotian Ye and Ping Tuo and Jiabin
         Yang and Ye Ding and Yifan Li and Davide Tisi and Qiyu Zeng and Han 
         Bao and Yu Xia and Jiameng Huang and Koki Muraoka and Yibo Wang and 
         Junhan Chang and Fengbo Yuan and Sigbj{\o}rn L{\o}land Bore and Chun
         Cai and Yinnian Lin and Bo Wang and Jiayan Xu and Jia-Xin Zhu and 
         Chenxing Luo and Yuzhi Zhang and Rhys E A Goodall and Wenshuo Liang
         and Anurag Kumar Singh and Sikai Yao and Jingchao Zhang and Renata
         Wentzcovitch and Jiequn Han and Jie Liu and Weile Jia and Darrin M
         York and Weinan E and Roberto Car and Linfeng Zhang and Han Wang},
  journal =  {J. Chem. Phys.},
  volume =   159,
  issue =    5,  
  year =    2023,
  pages  =   054801,
  doi =      {10.1063/5.0155600},
}

CITE-CITE-CITE-CITE-CITE-CITE-CITE-CITE-CITE-CITE-CITE-CITE-CITE

Generated 0 of 3 mixed pair_coeff terms from geometric mixing rule
Neighbor list info ...
  update: every = 1 steps, delay = 0 steps, check = yes
  max neighbors/atom: 2000, page size: 100000
  master list distance cutoff = 8
  ghost atom cutoff = 8
  binsize = 4, bins = 3 3 3
  1 neighbor lists, perpetual/occasional/extra = 1 0 0
  (1) pair deepmd, perpetual
      attributes: full, newton on
      pair build: full/bin/atomonly
      stencil: full/bin/3d
      bin: standard
Per MPI rank memory allocation (min/avg/max) = 3.085 | 3.085 | 3.085 Mbytes
   Step         PotEng         KinEng         TotEng      v_sysdensity       Temp          Press          Volume    
         0  -36.092637      0.2714463     -35.821191      0.029597591    300            3031.428       1728         
        10  -36.409706      0.58754604    -35.82216       0.029597591    649.35057      911.37894      1728         
        20  -36.511905      0.6768052     -35.8351        0.029597591    747.99899      738.01632      1728         
        30  -36.403454      0.54009979    -35.863354      0.029597591    596.9134      -953.40413      1728         
        40  -36.228761      0.34048936    -35.888272      0.029597591    376.30576     -1050.8387      1728         
        50  -36.070808      0.16915532    -35.901652      0.029597591    186.94893     -433.48154      1728         
        60  -36.060334      0.15060229    -35.909732      0.029597591    166.44428     -1530.6892      1728         
        70  -36.100006      0.18339927    -35.916607      0.029597591    202.69121     -726.90623      1728         
        80  -36.162895      0.24049255    -35.922402      0.029597591    265.79019     -651.4698       1728         
        90  -36.260474      0.33086951    -35.929605      0.029597591    365.67399     -1085.6324      1728         
       100  -36.449274      0.50563088    -35.943643      0.029597591    558.81868     -318.41294      1728         
       110  -36.590557      0.61822222    -35.972334      0.029597591    683.25361      525.41485      1728         
       120  -36.349442      0.3445109     -36.004931      0.029597591    380.75033      1184.3347      1728         
       130  -36.191243      0.17308236    -36.01816       0.029597591    191.28906      3250.5929      1728         
       140  -36.493804      0.45570028    -36.038104      0.029597591    503.63582      382.12864      1728         
       150  -36.565839      0.49499196    -36.070847      0.029597591    547.06064     -0.74850117     1728         
       160  -36.394884      0.29654012    -36.098344      0.029597591    327.73345     -557.37662      1728         
       170  -36.275382      0.16280522    -36.112577      0.029597591    179.93086     -1071.9444      1728         
       180  -36.264808      0.1455282     -36.11928       0.029597591    160.83645     -1393.113       1728         
       190  -36.262908      0.13969937    -36.123208      0.029597591    154.39448      17.632169      1728         
       200  -36.289075      0.16429428    -36.12478       0.029597591    181.57655     -1667.5812      1728         
       210  -36.4528        0.32644863    -36.126351      0.029597591    360.78807      320.49999      1728         
       220  -36.562794      0.43289306    -36.129901      0.029597591    478.42949     -513.21479      1728         
       230  -36.459395      0.3229857     -36.136409      0.029597591    356.96088      1017.2272      1728         
       240  -36.274963      0.135895      -36.139068      0.029597591    150.18992      2230.6267      1728         
       250  -36.455316      0.31426735    -36.141049      0.029597591    347.32543      1439.5876      1728         
       260  -36.525945      0.3825251     -36.14342       0.029597591    422.76328     -551.13275      1728         
       270  -36.480152      0.33217692    -36.147975      0.029597591    367.11892      724.55194      1728         
       280  -36.363872      0.2118645     -36.152007      0.029597591    234.15072     -1937.4974      1728         
       290  -36.286336      0.13270551    -36.153631      0.029597591    146.66492     -695.49673      1728         
       300  -36.292628      0.139584      -36.153044      0.029597591    154.26698     -615.1468       1728         
       310  -36.34468       0.19357188    -36.151109      0.029597591    213.9339      -1141.0864      1728         
       320  -36.430467      0.28313094    -36.147336      0.029597591    312.91375     -234.64085      1728         
       330  -36.57204       0.42913063    -36.142909      0.029597591    474.27129      533.62828      1728         
       340  -36.434144      0.29424142    -36.139903      0.029597591    325.19295     -90.720396      1728         
       350  -36.278758      0.13972715    -36.139031      0.029597591    154.42518      2822.5552      1728         
       360  -36.486968      0.34994713    -36.137021      0.029597591    386.7584       817.44476      1728         
       370  -36.505925      0.37274167    -36.133184      0.029597591    411.95072     -547.78358      1728         
       380  -36.416114      0.28482472    -36.13129       0.029597591    314.7857       736.38622      1728         
       390  -36.414092      0.28250691    -36.131585      0.029597591    312.22408     -1436.5952      1728         
       400  -36.292541      0.16206281    -36.130478      0.029597591    179.11035     -1445.0263      1728         
       410  -36.243776      0.11546834    -36.128308      0.029597591    127.61457      156.17084      1728         
       420  -36.373948      0.25086217    -36.123086      0.029597591    277.2506      -1678.7519      1728         
       430  -36.481699      0.36568589    -36.116013      0.029597591    404.15274     -309.86006      1728         
       440  -36.505158      0.39853877    -36.106619      0.029597591    440.46144      1290.4528      1728         
       450  -36.379223      0.2811212     -36.098102      0.029597591    310.69261     -138.22809      1728         
       460  -36.294026      0.19993951    -36.094086      0.029597591    220.97134      2631.977       1728         
       470  -36.499783      0.41154576    -36.088238      0.029597591    454.83665      1052.5166      1728         
       480  -36.462922      0.38752094    -36.075401      0.029597591    428.28464     -1172.407       1728         
       490  -36.358376      0.29055224    -36.067823      0.029597591    321.1157       431.63828      1728         
       500  -36.367742      0.30428943    -36.063453      0.029597591    336.29792     -601.02215      1728         
       510  -36.238624      0.1811725     -36.057452      0.029597591    200.2302      -2376.4342      1728         
       520  -36.167236      0.11845388    -36.048783      0.029597591    130.91415      1010.1391      1728         
       530  -36.315776      0.27797738    -36.037798      0.029597591    307.21809     -1979.0162      1728         
       540  -36.473882      0.45513176    -36.01875       0.029597591    503.0075      -553.54407      1728         
       550  -36.413366      0.42207852    -35.991288      0.029597591    466.47736      1535.0099      1728         
       560  -36.287654      0.32067782    -35.966976      0.029597591    354.41023      638.52371      1728         
       570  -36.255464      0.30114788    -35.954316      0.029597591    332.82591      1621.2807      1728         
       580  -36.438481      0.50353578    -35.934946      0.029597591    556.50319      2496.5216      1728         
       590  -36.339721      0.43355103    -35.90617       0.029597591    479.15668     -2318.6373      1728         
       600  -36.362751      0.47234019    -35.890411      0.029597591    522.02611      777.86222      1728         
       610  -36.260366      0.38010005    -35.880266      0.029597591    420.08314     -891.10534      1728         
       620  -36.060763      0.18885944    -35.871903      0.029597591    208.72575     -1923.766       1728         
       630  -36.079903      0.21736288    -35.86254       0.029597591    240.22749      247.65264      1728         
       640  -36.202686      0.34897745    -35.853708      0.029597591    385.68672     -821.96514      1728         
       650  -36.272385      0.43089129    -35.841493      0.029597591    476.21715     -2189.3808      1728         
       660  -36.380027      0.55287597    -35.827151      0.029597591    611.03352      2228.3969      1728         
       670  -36.334946      0.50951041    -35.825435      0.029597591    563.10629     -501.12771      1728         
       680  -36.175786      0.34499365    -35.830793      0.029597591    381.28386      2073.1539      1728         
       690  -36.281211      0.44496565    -35.836245      0.029597591    491.77201      2851.7076      1728         
       700  -36.339444      0.4841876     -35.855256      0.029597591    535.11976     -1166.1837      1728         
       710  -36.430899      0.54647438    -35.884425      0.029597591    603.95854     -156.80792      1728         
       720  -36.351912      0.43646141    -35.91545       0.029597591    482.3732       107.58189      1728         
       730  -36.098493      0.1582666     -35.940226      0.029597591    174.91481     -2596.03        1728         
       740  -36.18379       0.22284171    -35.960949      0.029597591    246.28264      480.00437      1728         
       750  -36.323284      0.34141809    -35.981866      0.029597591    377.33218     -755.26519      1728         
       760  -36.278044      0.275753      -36.002291      0.029597591    304.75973     -2034.0667      1728         
       770  -36.42986       0.39625221    -36.033607      0.029597591    437.93436      1542.8453      1728         
       780  -36.504258      0.42972951    -36.074528      0.029597591    474.93316     -355.08879      1728         
       790  -36.326472      0.22991469    -36.096557      0.029597591    254.09963      1195.0342      1728         
       800  -36.325574      0.21454924    -36.111025      0.029597591    237.11787      2647.7338      1728         
       810  -36.451991      0.3209641     -36.131027      0.029597591    354.72662     -405.17567      1728         
       820  -36.529256      0.37998184    -36.149274      0.029597591    419.95249     -633.32855      1728         
       830  -36.432044      0.26926933    -36.162775      0.029597591    297.59403      718.12234      1728         
       840  -36.270671      0.09937715    -36.171294      0.029597591    109.83073     -2740.8338      1728         
       850  -36.367402      0.19108183    -36.17632       0.029597591    211.18191      433.67301      1728         
       860  -36.444165      0.26465874    -36.179506      0.029597591    292.49844     -615.26147      1728         
       870  -36.388307      0.20748713    -36.18082       0.029597591    229.3129      -1209.4942      1728         
       880  -36.503172      0.31881559    -36.184356      0.029597591    352.3521       1000.3938      1728         
       890  -36.464187      0.27557746    -36.188609      0.029597591    304.56572      1154.8648      1728         
       900  -36.356239      0.16676893    -36.18947       0.029597591    184.31151      46.189326      1728         
       910  -36.424183      0.23445672    -36.189726      0.029597591    259.11945      2690.7278      1728         
       920  -36.47351       0.28261162    -36.190898      0.029597591    312.33981     -1324.926       1728         
       930  -36.497779      0.30553442    -36.192244      0.029597591    337.67388     -248.13571      1728         
       940  -36.369708      0.17782861    -36.19188       0.029597591    196.53457     -90.643494      1728         
       950  -36.278679      0.08748017    -36.191199      0.029597591    96.682292     -1744.8391      1728         
       960  -36.445724      0.2556784     -36.190046      0.029597591    282.57346     -729.49118      1728         
       970  -36.472813      0.28689317    -36.18592       0.029597591    317.07173      660.36563      1728         
       980  -36.408814      0.22890766    -36.179907      0.029597591    252.98667     -1491.0754      1728         
       990  -36.504895      0.32978257    -36.175113      0.029597591    364.47271      2082.8536      1728         
      1000  -36.374588      0.20373536    -36.170853      0.029597591    225.16648      1097.3338      1728         
      1010  -36.398907      0.23224339    -36.166664      0.029597591    256.67329      285.5395       1728         
      1020  -36.516989      0.36018       -36.156809      0.029597591    398.06768      1154.3628      1728         
      1030  -36.407924      0.25820566    -36.149718      0.029597591    285.36656     -888.57725      1728         
      1040  -36.410557      0.26583839    -36.144719      0.029597591    293.80218     -981.19788      1728         
      1050  -36.329686      0.19258138    -36.137105      0.029597591    212.8392       164.14283      1728         
      1060  -36.243291      0.11349173    -36.129799      0.029597591    125.43003     -1968.2536      1728         
      1070  -36.435189      0.31449382    -36.120695      0.029597591    347.57573     -559.07168      1728         
      1080  -36.484468      0.38308826    -36.101379      0.029597591    423.38568      534.95102      1728         
      1090  -36.375568      0.29516697    -36.080401      0.029597591    326.21587     -752.6734       1728         
      1100  -36.409926      0.34904305    -36.060883      0.029597591    385.75922      2487.2385      1728         
      1110  -36.30295       0.25850635    -36.044444      0.029597591    285.69888      1380.2495      1728         
      1120  -36.389458      0.36351712    -36.025941      0.029597591    401.75583      154.87225      1728         
      1130  -36.4821        0.48765312    -35.994447      0.029597591    538.94982      438.54863      1728         
      1140  -36.280175      0.30814104    -35.972034      0.029597591    340.55469     -693.95517      1728         
      1150  -36.252031      0.29275997    -35.959271      0.029597591    323.55567     -1545.3413      1728         
      1160  -36.172417      0.22965218    -35.942765      0.029597591    253.80952      825.00238      1728         
      1170  -36.086132      0.15852457    -35.927608      0.029597591    175.19992     -2661.7005      1728         
      1180  -36.233293      0.32110448    -35.912188      0.029597591    354.88177      2.1864927      1728         
      1190  -36.382224      0.49764059    -35.884584      0.029597591    549.98787     -450.3818       1728         
      1200  -36.302826      0.45038067    -35.852446      0.029597591    497.75664     -376.14903      1728         
      1210  -36.35083       0.52093751    -35.829893      0.029597591    575.73542      1750.2471      1728         
      1220  -36.149882      0.33179089    -35.818091      0.029597591    366.69228      2913.0879      1728         
      1230  -36.2731        0.46359971    -35.8095        0.029597591    512.3662      -236.14545      1728         
      1240  -36.396062      0.59262641    -35.803435      0.029597591    654.96535      1847.7551      1728         
      1250  -36.295321      0.48336092    -35.81196       0.029597591    534.20611     -1691.5348      1728         
      1260  -36.214401      0.3893692     -35.825032      0.029597591    430.32731     -841.86921      1728         
      1270  -36.082275      0.24555006    -35.836725      0.029597591    271.37971      54.977571      1728         
      1280  -36.02246       0.17291879    -35.849541      0.029597591    191.10828     -1581.7566      1728         
      1290  -36.139137      0.27848036    -35.860657      0.029597591    307.77398     -1120.4621      1728         
      1300  -36.231814      0.35386808    -35.877946      0.029597591    391.0918       263.43477      1728         
      1310  -36.267104      0.36377211    -35.903332      0.029597591    402.03765     -1941.7891      1728         
      1320  -36.511337      0.55625998    -35.955077      0.029597591    614.7735       1053.721       1728         
      1330  -36.429997      0.41311388    -36.016884      0.029597591    456.56972      1350.3147      1728         
      1340  -36.23363       0.17979443    -36.053835      0.029597591    198.70718      927.99563      1728         
      1350  -36.363246      0.27613489    -36.087111      0.029597591    305.18178      2432.593       1728         
      1360  -36.557728      0.42398889    -36.13374       0.029597591    468.58868     -451.72259      1728         
      1370  -36.468883      0.30107465    -36.167808      0.029597591    332.74497     -1038.6164      1728         
      1380  -36.3537        0.16624712    -36.187453      0.029597591    183.73481      183.9795       1728         
      1390  -36.304222      0.10777832    -36.196444      0.029597591    119.11563     -1441.0359      1728         
      1400  -36.38746       0.18621418    -36.201246      0.029597591    205.80222     -1163.0996      1728         
      1410  -36.371896      0.16823193    -36.203664      0.029597591    185.92841      497.44249      1728         
      1420  -36.474772      0.26858891    -36.206183      0.029597591    296.84203     -1681.7295      1728         
      1430  -36.541179      0.33095067    -36.210229      0.029597591    365.76369      1195.8454      1728         
      1440  -36.43141       0.21802881    -36.213382      0.029597591    240.96347      1449.7142      1728         
      1450  -36.340524      0.12673374    -36.213791      0.029597591    140.06498      922.41735      1728         
      1460  -36.492216      0.27812668    -36.214089      0.029597591    307.38309      1226.4041      1728         
      1470  -36.527375      0.31319118    -36.214184      0.029597591    346.13606      171.43621      1728         
      1480  -36.454581      0.24034442    -36.214237      0.029597591    265.62648     -1785.4138      1728         
      1490  -36.326686      0.11304833    -36.213638      0.029597591    124.94         573.94693      1728         
      1500  -36.342061      0.12937548    -36.212686      0.029597591    142.98461     -1819.768       1728         
      1510  -36.377824      0.16814491    -36.209679      0.029597591    185.83223     -782.6093       1728         
      1520  -36.390458      0.18649748    -36.203961      0.029597591    206.11533      145.58138      1728         
      1530  -36.495036      0.30047912    -36.194557      0.029597591    332.0868      -674.52649      1728         
      1540  -36.528468      0.34365916    -36.184809      0.029597591    379.80899      593.68886      1728         
      1550  -36.326676      0.14970977    -36.176966      0.029597591    165.45788      2620.1142      1728         
      1560  -36.360543      0.18961461    -36.170929      0.029597591    209.56035      238.26228      1728         
      1570  -36.545479      0.38700952    -36.15847       0.029597591    427.71942      1104.2315      1728         
      1580  -36.45479       0.30859576    -36.146194      0.029597591    341.05725     -206.63433      1728         
      1590  -36.373199      0.23676542    -36.136434      0.029597591    261.671       -1384.2337      1728         
      1600  -36.269646      0.14092641    -36.128719      0.029597591    155.75059     -214.88753      1728         
      1610  -36.281598      0.15918605    -36.122412      0.029597591    175.93098     -1134.4244      1728         
      1620  -36.27806       0.16439104    -36.113669      0.029597591    181.68349     -1452.4147      1728         
      1630  -36.353922      0.25585548    -36.098067      0.029597591    282.76917      488.93643      1728         
      1640  -36.438161      0.36077972    -36.077381      0.029597591    398.73048     -752.35638      1728         
      1650  -36.512181      0.45686327    -36.055318      0.029597591    504.92115      667.05794      1728         
      1660  -36.216707      0.1776972     -36.03901       0.029597591    196.38933      2712.5987      1728         
      1670  -36.315301      0.28579032    -36.029511      0.029597591    315.85287      895.76827      1728         
      1680  -36.503747      0.49108063    -36.012666      0.029597591    542.73787      675.4579       1728         
      1690  -36.423301      0.42349204    -35.999809      0.029597591    468.03957      54.887189      1728         
      1700  -36.236223      0.24324135    -35.992982      0.029597591    268.82814     -1173.7766      1728         
      1710  -36.217013      0.22733824    -35.989675      0.029597591    251.25217     -548.28498      1728         
      1720  -36.138653      0.1530136     -35.98564       0.029597591    169.10925     -882.13248      1728         
      1730  -36.146044      0.1646147     -35.98143       0.029597591    181.93068     -1646.6835      1728         
      1740  -36.196899      0.22430787    -35.972591      0.029597591    247.90303      196.57147      1728         
      1750  -36.335107      0.37337543    -35.961732      0.029597591    412.65115     -896.66534      1728         
      1760  -36.462057      0.51311926    -35.948938      0.029597591    567.09477      51.727312      1728         
      1770  -36.38413       0.4418269     -35.942303      0.029597591    488.30309      1684.9129      1728         
      1780  -36.122226      0.18094357    -35.941282      0.029597591    199.9772       1903.6883      1728         
      1790  -36.375092      0.4327677     -35.942324      0.029597591    478.29094      1471.2688      1728         
      1800  -36.482498      0.53410889    -35.948389      0.029597591    590.29232      450.60875      1728         
      1810  -36.318609      0.35712993    -35.961479      0.029597591    394.69676     -972.49787      1728         
      1820  -36.235654      0.2589916     -35.976662      0.029597591    286.23517     -145.77343      1728         
      1830  -36.147754      0.15986635    -35.987888      0.029597591    176.68285     -1354.1628      1728         
      1840  -36.174593      0.17768526    -35.996907      0.029597591    196.37614     -1197.762       1728         
      1850  -36.174804      0.16893734    -36.005867      0.029597591    186.70802     -378.74019      1728         
      1860  -36.302365      0.2811331     -36.021232      0.029597591    310.70576     -800.44841      1728         
      1870  -36.40253       0.35867173    -36.043858      0.029597591    396.40075     -251.09787      1728         
      1880  -36.542421      0.46016271    -36.082258      0.029597591    508.56767      762.12414      1728         
      1890  -36.294312      0.17553733    -36.118774      0.029597591    194.00227      1027.3239      1728         
      1900  -36.341146      0.20202534    -36.13912       0.029597591    223.27658      2196.4048      1728         
      1910  -36.493383      0.32228517    -36.171098      0.029597591    356.18666      552.67436      1728         
      1920  -36.503762      0.29855209    -36.20521       0.029597591    329.95707     -410.97071      1728         
      1930  -36.404602      0.17377812    -36.230824      0.029597591    192.058       -40.570699      1728         
      1940  -36.373164      0.12822802    -36.244936      0.029597591    141.71644     -1136.1756      1728         
      1950  -36.351132      0.099495009   -36.251637      0.029597591    109.96098     -1279.9342      1728         
      1960  -36.414571      0.15813872    -36.256432      0.029597591    174.77348     -112.83135      1728         
      1970  -36.454344      0.19305325    -36.26129       0.029597591    213.3607      -950.32069      1728         
      1980  -36.541539      0.27549382    -36.266045      0.029597591    304.47328      469.03914      1728         
      1990  -36.486693      0.21633079    -36.270363      0.029597591    239.08683      1144.4237      1728         
      2000  -36.356465      0.085134059   -36.271331      0.029597591    94.089392      1098.8366      1728         
      2010  -36.489948      0.21865321    -36.271295      0.029597591    241.65355      1293.0022      1728         
      2020  -36.551248      0.28097676    -36.270271      0.029597591    310.53298      100.49349      1728         
      2030  -36.464235      0.19511871    -36.269116      0.029597591    215.64343     -954.18049      1728         
      2040  -36.399069      0.13149495    -36.267574      0.029597591    145.32703      185.0335       1728         
      2050  -36.348793      0.083408734   -36.265384      0.029597591    92.182578     -1412.0565      1728         
      2060  -36.374475      0.11145125    -36.263024      0.029597591    123.17492     -955.2892       1728         
      2070  -36.453976      0.19740145    -36.256574      0.029597591    218.16629     -184.66838      1728         
      2080  -36.500441      0.25410721    -36.246334      0.029597591    280.83699     -686.23536      1728         
      2090  -36.513993      0.27934082    -36.234653      0.029597591    308.72495      814.30524      1728         
      2100  -36.369433      0.1434656     -36.225968      0.029597591    158.55689      2067.5915      1728         
      2110  -36.373712      0.15452481    -36.219187      0.029597591    170.77943      747.39227      1728         
      2120  -36.521607      0.31524909    -36.206358      0.029597591    348.41044      1064.2557      1728         
      2130  -36.516886      0.3267875     -36.190098      0.029597591    361.16259     -368.37317      1728         
      2140  -36.357165      0.17791093    -36.179254      0.029597591    196.62555     -1197.2586      1728         
      2150  -36.297501      0.12606817    -36.171433      0.029597591    139.3294       35.945516      1728         
      2160  -36.264968      0.10053775    -36.16443       0.029597591    111.11342     -1264.4377      1728         
      2170  -36.307061      0.15060046    -36.15646       0.029597591    166.44226     -1099.9546      1728         
      2180  -36.364873      0.22208862    -36.142784      0.029597591    245.45034      55.609769      1728         
      2190  -36.474901      0.35260526    -36.122296      0.029597591    389.69615     -978.82579      1728         
      2200  -36.466686      0.36471615    -36.10197       0.029597591    403.08099      823.4988       1728         
      2210  -36.291867      0.20319633    -36.088671      0.029597591    224.57074      2596.9735      1728         
      2220  -36.283664      0.20356484    -36.080099      0.029597591    224.97802      824.73835      1728         
      2230  -36.49971       0.4323038     -36.067406      0.029597591    477.77825      1286.308       1728         
      2240  -36.462875      0.40623361    -36.056641      0.029597591    448.96571     -300.83716      1728         
      2250  -36.272425      0.22051804    -36.051907      0.029597591    243.71454     -1254.9028      1728         
      2260  -36.179931      0.13011541    -36.049816      0.029597591    143.80238     -216.91806      1728         
      2270  -36.213918      0.16657844    -36.04734       0.029597591    184.10098     -936.64723      1728         
      2280  -36.185755      0.14244924    -36.043306      0.029597591    157.43361     -1487.6971      1728         
      2290  -36.224137      0.18669495    -36.037442      0.029597591    206.33357      497.20976      1728         
      2300  -36.39315       0.36354893    -36.029601      0.029597591    401.79099     -1494.7021      1728         
      2310  -36.472885      0.44948781    -36.023398      0.029597591    496.76986      316.71518      1728         
      2320  -36.328784      0.3067365     -36.022048      0.029597591    339.0024       1850.4979      1728         
      2330  -36.179456      0.15715775    -36.022298      0.029597591    173.68932      1622.3263      1728         
      2340  -36.4186        0.39495647    -36.023643      0.029597591    436.50232      1253.8746      1728         
      2350  -36.472909      0.44570919    -36.0272        0.029597591    492.59376      884.53076      1728         
      2360  -36.340137      0.30449548    -36.035641      0.029597591    336.52565     -1528.3304      1728         
      2370  -36.238323      0.19567863    -36.042645      0.029597591    216.26226     -4.0930838      1728         
      2380  -36.219313      0.1727669     -36.046546      0.029597591    190.94042     -1197.1125      1728         
      2390  -36.198226      0.15052919    -36.047697      0.029597591    166.3635      -1193.2265      1728         
      2400  -36.241205      0.19263292    -36.048572      0.029597591    212.89616     -78.934894      1728         
      2410  -36.336765      0.28762604    -36.049139      0.029597591    317.88169     -631.67603      1728         
      2420  -36.489903      0.43861201    -36.051291      0.029597591    484.75002     -627.82822      1728         
      2430  -36.378184      0.32109275    -36.057091      0.029597591    354.8688       1651.2912      1728         
      2440  -36.224079      0.16193727    -36.062141      0.029597591    178.97161      1202.548       1728         
      2450  -36.410041      0.34373172    -36.066309      0.029597591    379.88918      1512.4204      1728         
      2460  -36.457136      0.3838571     -36.073279      0.029597591    424.2354       779.89575      1728         
      2470  -36.373843      0.29224979    -36.081593      0.029597591    322.99182     -678.46467      1728         
      2480  -36.368353      0.27763074    -36.090722      0.029597591    306.83498     -441.32973      1728         
      2490  -36.238205      0.14206899    -36.096136      0.029597591    157.01336     -978.38392      1728         
      2500  -36.240742      0.14281718    -36.097925      0.029597591    157.84026     -1217.7541      1728         
      2510  -36.343396      0.24406854    -36.099327      0.029597591    269.74234     -352.3925       1728         
      2520  -36.377584      0.27639227    -36.101192      0.029597591    305.46624     -408.26397      1728         
      2530  -36.440737      0.33731964    -36.103418      0.029597591    372.80261     -190.87328      1728         
      2540  -36.465457      0.35734801    -36.108109      0.029597591    394.93779      1367.8087      1728         
      2550  -36.21156       0.10054779    -36.111012      0.029597591    111.12451      1083.0862      1728         
      2560  -36.416246      0.30336123    -36.112884      0.029597591    335.27209      1571.3433      1728         
      2570  -36.520197      0.40343732    -36.116759      0.029597591    445.87527     -76.478115      1728         
      2580  -36.356167      0.23490949    -36.121258      0.029597591    259.61984     -150.35694      1728         
      2590  -36.325965      0.2012317     -36.124733      0.029597591    222.39945     -522.15134      1728         
      2600  -36.293965      0.16705463    -36.126911      0.029597591    184.62727     -794.56206      1728         
      2610  -36.252299      0.12503588    -36.127263      0.029597591    138.18852     -1485.9789      1728         
      2620  -36.384524      0.25845174    -36.126072      0.029597591    285.63852      116.02349      1728         
      2630  -36.417487      0.29317391    -36.124313      0.029597591    324.01315     -1199.424       1728         
      2640  -36.446741      0.32240648    -36.124335      0.029597591    356.32072      1066.5724      1728         
      2650  -36.405632      0.2799538     -36.125679      0.029597591    309.40241      1036.3968      1728         
      2660  -36.251857      0.12625021    -36.125607      0.029597591    139.5306       1557.7478      1728         
      2670  -36.430436      0.30468236    -36.125754      0.029597591    336.73219      852.75327      1728         
      2680  -36.520604      0.3938303     -36.126773      0.029597591    435.25768      275.74216      1728         
      2690  -36.357831      0.22863938    -36.129192      0.029597591    252.69018     -1380.204       1728         
      2700  -36.26886       0.13835556    -36.130504      0.029597591    152.90931      572.29666      1728         
      2710  -36.274151      0.14301143    -36.131139      0.029597591    158.05494     -1615.3102      1728         
      2720  -36.308811      0.17858087    -36.13023       0.029597591    197.36596     -761.25478      1728         
      2730  -36.353977      0.22647327    -36.127503      0.029597591    250.29621     -458.14444      1728         
      2740  -36.436595      0.31284091    -36.123754      0.029597591    345.74894     -556.48757      1728         
      2750  -36.512799      0.39045696    -36.122342      0.029597591    431.5295       447.30991      1728         
      2760  -36.313176      0.1909934     -36.122183      0.029597591    211.08418      2260.6912      1728         
      2770  -36.288816      0.16727851    -36.121538      0.029597591    184.87469      785.17649      1728         
      2780  -36.515249      0.39513001    -36.120119      0.029597591    436.69411      1164.5516      1728         
      2790  -36.470451      0.34963457    -36.120817      0.029597591    386.41296     -179.75738      1728         
      2800  -36.33754       0.21505124    -36.122488      0.029597591    237.67269     -1183.6625      1728         
      2810  -36.308915      0.18500676    -36.123908      0.029597591    204.46779     -89.426012      1728         
      2820  -36.21741       0.093383664   -36.124027      0.029597591    103.20678     -937.58373      1728         
      2830  -36.299727      0.17670865    -36.123019      0.029597591    195.2968      -1119.0564      1728         
      2840  -36.382398      0.26344385    -36.118954      0.029597591    291.15576     -200.86697      1728         
      2850  -36.412641      0.29861307    -36.114028      0.029597591    330.02446     -756.88778      1728         
      2860  -36.506881      0.39699207    -36.109889      0.029597591    438.75204      339.99241      1728         
      2870  -36.330918      0.22289012    -36.108028      0.029597591    246.33615      2296.0653      1728         
      2880  -36.242599      0.13588147    -36.106717      0.029597591    150.17497      912.03222      1728         
      2890  -36.531407      0.42771878    -36.103688      0.029597591    472.71092      1372.2663      1728         
      2900  -36.45116       0.3490583     -36.102102      0.029597591    385.77607     -274.30914      1728         
      2910  -36.337037      0.23389275    -36.103144      0.029597591    258.49615     -877.10347      1728         
      2920  -36.282458      0.1781424     -36.104316      0.029597591    196.88137     -673.57847      1728         
      2930  -36.224064      0.11982991    -36.104234      0.029597591    132.43493     -436.4146       1728         
      2940  -36.239042      0.13595418    -36.103088      0.029597591    150.25533     -1543.0688      1728         
      2950  -36.361016      0.26228943    -36.098727      0.029597591    289.87991      473.61384      1728         
      2960  -36.409835      0.31937219    -36.090463      0.029597591    352.96725     -1394.794       1728         
      2970  -36.456374      0.37547774    -36.080896      0.029597591    414.9746       745.79567      1728         
      2980  -36.297334      0.22512774    -36.072206      0.029597591    248.80914      1511.1251      1728         
      2990  -36.253736      0.18797373    -36.065762      0.029597591    207.74686      1760.1026      1728         
      3000  -36.42386       0.37033252    -36.053527      0.029597591    409.28815      628.98506      1728         
      3010  -36.434262      0.39829194    -36.035971      0.029597591    440.18865      955.95037      1728         
      3020  -36.361381      0.33936608    -36.022015      0.029597591    375.06432     -1766.9145      1728         
      3030  -36.211883      0.19943082    -36.012452      0.029597591    220.40913      110.93703      1728         
      3040  -36.158495      0.15282593    -36.005669      0.029597591    168.90183     -1337.6527      1728         
      3050  -36.199148      0.20379379    -35.995354      0.029597591    225.23105     -826.79917      1728         
      3060  -36.248716      0.26850432    -35.980212      0.029597591    296.74854     -429.60472      1728         
      3070  -36.321303      0.35852918    -35.962774      0.029597591    396.24321     -217.69913      1728         
      3080  -36.451068      0.51107276    -35.939995      0.029597591    564.833       -737.15033      1728         
      3090  -36.25209       0.33003022    -35.922059      0.029597591    364.74641      2023.7324      1728         
      3100  -36.140496      0.22570475    -35.914791      0.029597591    249.44685      1335.0179      1728         
      3110  -36.397802      0.49257765    -35.905224      0.029597591    544.39236      1390.7657      1728         
      3120  -36.321734      0.42447846    -35.897255      0.029597591    469.12975      646.2209       1728         
      3130  -36.35916       0.46215791    -35.897002      0.029597591    510.77274     -597.71874      1728         
      3140  -36.238014      0.33506858    -35.902945      0.029597591    370.31477     -675.68051      1728         
      3150  -36.056886      0.14985001    -35.907036      0.029597591    165.61287     -846.61425      1728         
      3160  -36.162225      0.25204746    -35.910178      0.029597591    278.56058     -1234.8347      1728         
      3170  -36.225701      0.31115884    -35.914542      0.029597591    343.88993     -733.78253      1728         
      3180  -36.18318       0.263505      -35.919675      0.029597591    291.22334     -153.33363      1728         
      3190  -36.422035      0.49446333    -35.927572      0.029597591    546.4764      -613.12429      1728         
      3200  -36.455838      0.50673087    -35.949107      0.029597591    560.03437      688.0861       1728         
      3210  -36.181948      0.21144663    -35.970502      0.029597591    233.6889       1094.5275      1728         
      3220  -36.271738      0.28765825    -35.98408       0.029597591    317.9173       2284.1272      1728         
      3230  -36.441367      0.43075419    -36.010613      0.029597591    476.06563      163.71332      1728         
      3240  -36.391907      0.34920039    -36.042707      0.029597591    385.93311      417.22677      1728         
      3250  -36.353807      0.28285041    -36.070956      0.029597591    312.60371     -501.0148       1728         
      3260  -36.264789      0.17239607    -36.092393      0.029597591    190.53057     -684.48361      1728         
      3270  -36.214735      0.11097148    -36.103763      0.029597591    122.64468     -1543.6185      1728         
      3280  -36.306969      0.19300092    -36.113968      0.029597591    213.30287     -50.330867      1728         
      3290  -36.36784       0.24161439    -36.126226      0.029597591    267.03004     -1519.1535      1728         
      3300  -36.456615      0.31648067    -36.140134      0.029597591    349.77157      872.40446      1728         
      3310  -36.505083      0.34748849    -36.157594      0.029597591    384.04114      108.97809      1728         
      3320  -36.325094      0.1544137     -36.17068       0.029597591    170.65662      1414.6588      1728         
      3330  -36.324053      0.14750837    -36.176545      0.029597591    163.02492      1510.5763      1728         
      3340  -36.545704      0.35982189    -36.185882      0.029597591    397.67189      805.73336      1728         
      3350  -36.473882      0.27677441    -36.197108      0.029597591    305.88857     -1221.5994      1728         
      3360  -36.355314      0.15057666    -36.204737      0.029597591    166.41597      961.1356       1728         
      3370  -36.357259      0.14738134    -36.209877      0.029597591    162.88452     -1656.164       1728         
      3380  -36.329052      0.11708439    -36.211968      0.029597591    129.40061     -764.2427       1728         
      3390  -36.314576      0.10241805    -36.212158      0.029597591    113.1915      -581.1441       1728         
      3400  -36.47199       0.26085145    -36.211138      0.029597591    288.29067     -840.36204      1728         
      3410  -36.555107      0.34475417    -36.210352      0.029597591    381.01919     -104.19087      1728         
      3420  -36.427161      0.21727567    -36.209885      0.029597591    240.13111      1983.7036      1728         
      3430  -36.32616       0.11710437    -36.209056      0.029597591    129.42269      600.50938      1728         
      3440  -36.451801      0.24458365    -36.207217      0.029597591    270.31164      1820.1852      1728         
      3450  -36.558111      0.35467459    -36.203436      0.029597591    391.98315      98.759174      1728         
      3460  -36.467591      0.26778369    -36.199807      0.029597591    295.95211     -1206.6874      1728         
      3470  -36.36829       0.17027075    -36.198019      0.029597591    188.18169      23.230421      1728         
      3480  -36.309488      0.11316972    -36.196318      0.029597591    125.07415     -719.28403      1728         
      3490  -36.321941      0.12838506    -36.193556      0.029597591    141.89001     -1443.8526      1728         
      3500  -36.360811      0.17417027    -36.186641      0.029597591    192.49141     -6.0498924      1728         
      3510  -36.464592      0.28922904    -36.175363      0.029597591    319.65332     -1090.1849      1728         
      3520  -36.543438      0.38420935    -36.159229      0.029597591    424.6247      -67.416654      1728         
      3530  -36.396647      0.2531202     -36.143527      0.029597591    279.74616      2302.6267      1728         
      3540  -36.226139      0.091872685   -36.134266      0.029597591    101.53686      958.24591      1728         
      3550  -36.469132      0.34794668    -36.121185      0.029597591    384.54753      1601.0208      1728         
      3560  -36.527077      0.43387931    -36.093197      0.029597591    479.51949      137.93472      1728         
      3570  -36.377047      0.30993491    -36.067112      0.029597591    342.53725     -1233.819       1728         
      3580  -36.272531      0.22369489    -36.048836      0.029597591    247.22557     -605.29375      1728         
      3590  -36.217541      0.18329213    -36.034249      0.029597591    202.5728      -161.38915      1728         
      3600  -36.13781       0.11623206    -36.021578      0.029597591    128.45862     -2016.1242      1728         
      3610  -36.237239      0.23738366    -35.999856      0.029597591    262.35428      822.96235      1728         
      3620  -36.319569      0.35548971    -35.96408       0.029597591    392.88402     -1925.8591      1728         
      3630  -36.442321      0.52055898    -35.921762      0.029597591    575.31708     -11.984801      1728         
      3640  -36.375684      0.49822451    -35.87746       0.029597591    550.63322      1429.7635      1728         
      3650  -36.071726      0.21897668    -35.852749      0.029597591    242.01104      2133.8138      1728         
      3660  -36.163226      0.3205443     -35.842682      0.029597591    354.26266      1264.1126      1728         
      3670  -36.476774      0.65259797    -35.824176      0.029597591    721.24538      2049.2937      1728         
      3680  -36.292445      0.47413442    -35.81831       0.029597591    524.00907     -2252.2701      1728         
      3690  -36.165374      0.34199482    -35.823379      0.029597591    377.96958      373.0537       1728         
      3700  -36.11319       0.28493613    -35.828254      0.029597591    314.90884     -1195.4212      1728         
      3710  -36.010816      0.18016389    -35.830653      0.029597591    199.11551     -1099.8973      1728         
      3720  -36.021786      0.18855294    -35.833233      0.029597591    208.387       -253.70044      1728         
      3730  -36.145835      0.31135906    -35.834476      0.029597591    344.11121     -344.63019      1728         
      3740  -36.245369      0.40977191    -35.835597      0.029597591    452.8762      -2149.4379      1728         
      3750  -36.395168      0.55254786    -35.84262       0.029597591    610.6709       1209.444       1728         
      3760  -36.446765      0.58333476    -35.86343       0.029597591    644.6963      -533.28498      1728         
      3770  -36.219428      0.3362073     -35.88322       0.029597591    371.57327      2277.1862      1728         
      3780  -36.183623      0.2881075     -35.895515      0.029597591    318.4138       2623.215       1728         
      3790  -36.414431      0.5004686     -35.913962      0.029597591    553.11337      147.80981      1728         
      3800  -36.508531      0.56428619    -35.944245      0.029597591    623.644       -388.5097       1728         
      3810  -36.270299      0.30137428    -35.968925      0.029597591    333.07613     -181.19013      1728         
      3820  -36.185786      0.20215181    -35.983634      0.029597591    223.41636     -2004.0079      1728         
      3830  -36.233759      0.23818479    -35.995574      0.029597591    263.23967     -219.66427      1728         
      3840  -36.211645      0.2080063     -36.003639      0.029597591    229.88668     -383.26449      1728         
      3850  -36.302582      0.29321322    -36.009368      0.029597591    324.0566      -1372.279       1728         
      3860  -36.470944      0.44925137    -36.021693      0.029597591    496.50855      330.06464      1728         
      3870  -36.412995      0.37487514    -36.03812       0.029597591    414.30861     -449.13915      1728         
      3880  -36.366128      0.31389405    -36.052234      0.029597591    346.91286      1290.8076      1728         
      3890  -36.329676      0.26566833    -36.064008      0.029597591    293.61424      2008.5532      1728         
      3900  -36.344187      0.26818567    -36.076001      0.029597591    296.39638      708.92405      1728         
      3910  -36.525674      0.43511418    -36.09056       0.029597591    480.88425     -162.76304      1728         
      3920  -36.469272      0.35884316    -36.110429      0.029597591    396.59021      302.85828      1728         
      3930  -36.232289      0.1105627     -36.121726      0.029597591    122.1929      -2290.8249      1728         
      3940  -36.329597      0.20057451    -36.129022      0.029597591    221.67314      290.42193      1728         
      3950  -36.406517      0.26881719    -36.1377        0.029597591    297.09433     -1270.5301      1728         
      3960  -36.351832      0.20760763    -36.144224      0.029597591    229.44608     -267.12455      1728         
      3970  -36.472706      0.32090317    -36.151803      0.029597591    354.65928      223.71101      1728         
      3980  -36.465539      0.30170692    -36.163832      0.029597591    333.44376      596.9619       1728         
      3990  -36.31791       0.14774948    -36.17016       0.029597591    163.29139      351.96233      1728         
      4000  -36.399859      0.22556595    -36.174293      0.029597591    249.29344      2531.6947      1728         
      4010  -36.446134      0.26512197    -36.181012      0.029597591    293.0104      -1274.7684      1728         
      4020  -36.474304      0.28611903    -36.188185      0.029597591    316.21616      766.53514      1728         
      4030  -36.438557      0.24492384    -36.193633      0.029597591    270.68762     -522.78261      1728         
      4040  -36.327334      0.13011775    -36.197216      0.029597591    143.80496     -1366.579       1728         
      4050  -36.362329      0.16227218    -36.200057      0.029597591    179.34175     -629.18736      1728         
      4060  -36.518477      0.3163793     -36.202098      0.029597591    349.65954      148.91862      1728         
      4070  -36.46244       0.25907394    -36.203366      0.029597591    286.32617     -1545.8244      1728         
      4080  -36.430325      0.22502724    -36.205298      0.029597591    248.69807      2195.0163      1728         
      4090  -36.446472      0.23855325    -36.207919      0.029597591    263.6469       383.43597      1728         
      4100  -36.414756      0.20655578    -36.2082        0.029597591    228.28358      583.40856      1728         
      4110  -36.436706      0.2295092     -36.207197      0.029597591    253.65149      1357.4604      1728         
      4120  -36.507771      0.30110588    -36.206665      0.029597591    332.77949     -1016.0281      1728         
      4130  -36.456165      0.24927793    -36.206887      0.029597591    275.49971     -905.76298      1728         
      4140  -36.349415      0.14447096    -36.204944      0.029597591    159.668        621.27082      1728         
      4150  -36.338182      0.13689671    -36.201286      0.029597591    151.29701     -2002.3749      1728         
      4160  -36.474024      0.27814893    -36.195875      0.029597591    307.40769     -353.75532      1728         
      4170  -36.500311      0.31440377    -36.185907      0.029597591    347.4762       458.81153      1728         
      4180  -36.46201       0.29353536    -36.168475      0.029597591    324.41263     -1141.721       1728         
      4190  -36.405061      0.25475589    -36.150305      0.029597591    281.5539       2382.5022      1728         
      4200  -36.382482      0.24575182    -36.13673       0.029597591    271.60268      1148.9812      1728         
      4210  -36.402019      0.28595311    -36.116065      0.029597591    316.03279     -207.75612      1728         
      4220  -36.464873      0.38449074    -36.080382      0.029597591    424.93569      802.35684      1728         
      4230  -36.381426      0.33152474    -36.049901      0.029597591    366.39815     -671.19921      1728         
      4240  -36.286737      0.25549983    -36.031237      0.029597591    282.3761      -2118.6613      1728         
      4250  -36.245935      0.24009307    -36.005842      0.029597591    265.34869      1442.8957      1728         
      4260  -36.186494      0.201607      -35.984887      0.029597591    222.81423     -2217.661       1728         
      4270  -36.358856      0.39223572    -35.96662       0.029597591    433.49536     -85.35299       1728         
      4280  -36.403131      0.46560357    -35.937527      0.029597591    514.58086      331.13233      1728         
      4290  -36.244255      0.32981419    -35.914441      0.029597591    364.50766     -357.82174      1728         
      4300  -36.286674      0.38460704    -35.902067      0.029597591    425.06422      1404.7139      1728         
      4310  -36.282451      0.39106566    -35.891385      0.029597591    432.20223      2533.9239      1728         
      4320  -36.181783      0.29817652    -35.883607      0.029597591    329.54199     -1428.2829      1728         
      4330  -36.455644      0.575872      -35.879772      0.029597591    636.44852      1616.411       1728         
      4340  -36.246213      0.36189821    -35.884314      0.029597591    399.96663     -1398.5671      1728         
      4350  -36.166815      0.27856967    -35.888246      0.029597591    307.87268     -1506.7942      1728         
      4360  -36.239978      0.34493365    -35.895044      0.029597591    381.21755      359.67845      1728         
      4370  -36.21245       0.30637823    -35.906072      0.029597591    338.60645     -795.89017      1728         
      4380  -36.300912      0.38530648    -35.915605      0.029597591    425.83723     -1175.7549      1728         
      4390  -36.517031      0.58060398    -35.936427      0.029597591    641.67826      1810.5884      1728         
      4400  -36.149919      0.18978559    -35.960133      0.029597591    209.74931     -802.45447      1728         
      4410  -36.327484      0.35181274    -35.975671      0.029597591    388.82025      1883.0295      1728         
      4420  -36.382235      0.38395751    -35.998278      0.029597591    424.34636      1227.9419      1728         
      4430  -36.295216      0.27600004    -36.019216      0.029597591    305.03274     -1003.4643      1728         
      4440  -36.370474      0.3258243     -36.044649      0.029597591    360.09807      516.26232      1728         
      4450  -36.379866      0.31434489    -36.065521      0.029597591    347.41113     -480.22982      1728         
      4460  -36.284969      0.20481583    -36.080153      0.029597591    226.3606      -2207.9448      1728         
      4470  -36.314826      0.22117241    -36.093653      0.029597591    244.43775      1112.3205      1728         
      4480  -36.418823      0.30953501    -36.109288      0.029597591    342.09529     -943.74967      1728         
      4490  -36.472926      0.35137874    -36.121547      0.029597591    388.34061     -496.08513      1728         
      4500  -36.363926      0.22814783    -36.135779      0.029597591    252.14692      2093.8404      1728         
      4510  -36.354694      0.2103766     -36.144318      0.029597591    232.50631     -52.60881       1728         
      4520  -36.481772      0.3282281     -36.153544      0.029597591    362.75472      505.19429      1728         
      4530  -36.397087      0.2374795     -36.159607      0.029597591    262.4602       1208.1219      1728         
      4540  -36.427115      0.26050043    -36.166615      0.029597591    287.90272     -1564.1599      1728         
      4550  -36.410425      0.23820451    -36.17222       0.029597591    263.26147     -40.600962      1728         
      4560  -36.382817      0.20787156    -36.174946      0.029597591    229.73777     -123.39865      1728         
      4570  -36.364765      0.18928845    -36.175477      0.029597591    209.19988     -2070.6551      1728         
      4580  -36.43697       0.25983703    -36.177132      0.029597591    287.16953      1020.1164      1728         
      4590  -36.465535      0.28767234    -36.177862      0.029597591    317.93287     -5.3022558      1728         
      4600  -36.439264      0.2614061     -36.177858      0.029597591    288.90365     -5.2239046      1728         
      4610  -36.30207       0.12485543    -36.177215      0.029597591    137.98909      2036.6339      1728         
      4620  -36.499467      0.32240558    -36.177061      0.029597591    356.31973      195.29777      1728         
      4630  -36.44059       0.26544215    -36.175148      0.029597591    293.36427     -887.91467      1728         
      4640  -36.400078      0.22633776    -36.17374       0.029597591    250.14645      1282.3686      1728         
      4650  -36.38009       0.20718147    -36.172908      0.029597591    228.97509     -1940.4854      1728         
      4660  -36.417724      0.2457333     -36.171991      0.029597591    271.58222     -72.588806      1728         
      4670  -36.364842      0.1958742     -36.168968      0.029597591    216.4784      -185.90432      1728         
      4680  -36.392841      0.22779153    -36.16505       0.029597591    251.75314     -1059.397       1728         
      4690  -36.459414      0.29750824    -36.161906      0.029597591    328.80341      292.81343      1728         
      4700  -36.465725      0.30714861    -36.158576      0.029597591    339.45786      1632.8047      1728         
      4710  -36.245802      0.091579625   -36.154223      0.029597591    101.21297     -538.6237       1728         
      4720  -36.452867      0.30255222    -36.150314      0.029597591    334.37797      2353.6573      1728         
      4730  -36.459699      0.3159167     -36.143782      0.029597591    349.14828     -797.1203       1728         
      4740  -36.331558      0.19306217    -36.138496      0.029597591    213.37056     -541.05555      1728         
      4750  -36.364353      0.23227629    -36.132077      0.029597591    256.70965     -58.689943      1728         
      4760  -36.338227      0.2120962     -36.126131      0.029597591    234.40681     -823.49106      1728         
      4770  -36.344181      0.2229209     -36.12126       0.029597591    246.37016     -1364.5494      1728         
      4780  -36.445411      0.33546372    -36.109947      0.029597591    370.75147      1374.3925      1728         
      4790  -36.344278      0.24811345    -36.096164      0.029597591    274.21274     -1555.8255      1728         
      4800  -36.409236      0.32138411    -36.087852      0.029597591    355.19081      1527.0749      1728         
      4810  -36.40887       0.33371333    -36.075157      0.029597591    368.81695      1406.9069      1728         
      4820  -36.22127       0.1603541     -36.060916      0.029597591    177.2219      -90.638155      1728         
      4830  -36.488348      0.44460436    -36.043744      0.029597591    491.37271      706.24239      1728         
      4840  -36.443805      0.42292421    -36.020881      0.029597591    467.41201      189.60622      1728         
      4850  -36.194861      0.19313546    -36.001726      0.029597591    213.45156     -2061.0705      1728         
      4860  -36.252076      0.27218228    -35.979894      0.029597591    300.8134       641.79842      1728         
      4870  -36.319121      0.36660233    -35.952519      0.029597591    405.16557     -1344.8565      1728         
      4880  -36.236901      0.3079001     -35.929         0.029597591    340.28841     -1452.8325      1728         
      4890  -36.329385      0.44545189    -35.883933      0.029597591    492.3094       1773.0534      1728         
      4900  -36.252674      0.41127624    -35.841398      0.029597591    454.53878     -599.64013      1728         
      4910  -36.265302      0.44630188    -35.819         0.029597591    493.2488       1079.9948      1728         
      4920  -36.149548      0.35798379    -35.791564      0.029597591    395.64045      2633.9801      1728         
      4930  -36.255402      0.4884654     -35.766937      0.029597591    539.84754     -593.77711      1728         
      4940  -36.363862      0.6096167     -35.754246      0.029597591    673.74286     -934.2853       1728         
      4950  -36.207836      0.45800806    -35.749828      0.029597591    506.18637      1753.3808      1728         
      4960  -35.983197      0.23189624    -35.751301      0.029597591    256.28962     -3209.3551      1728         
      4970  -36.202949      0.44339046    -35.759558      0.029597591    490.03112      746.27945      1728         
      4980  -36.212979      0.44562519    -35.767354      0.029597591    492.50093     -984.00639      1728         
      4990  -36.124108      0.34577697    -35.778331      0.029597591    382.14957     -1243.6677      1728         
      5000  -36.272017      0.46438619    -35.807631      0.029597591    513.23542      507.57338      1728         
      5010  -36.320845      0.48309234    -35.837753      0.029597591    533.90928      1931.4637      1728         
      5020  -36.126519      0.25945604    -35.867063      0.029597591    286.74847     -1020.9674      1728         
      5030  -36.110206      0.21102813    -35.899177      0.029597591    233.22638      3839.6948      1728         
      5040  -36.418162      0.48131197    -35.93685       0.029597591    531.94163     -1220.4114      1728         
      5050  -36.351209      0.37658768    -35.974621      0.029597591    416.2013      -532.75158      1728         
      5060  -36.151576      0.14257666    -36.008999      0.029597591    157.57444      421.20137      1728         
      5070  -36.265335      0.23253007    -36.032805      0.029597591    256.99013     -779.88907      1728         
      5080  -36.373153      0.32388715    -36.049266      0.029597591    357.95714     -1960.0536      1728         
      5090  -36.294227      0.23164231    -36.062585      0.029597591    256.00899      1596.9964      1728         
      5100  -36.370858      0.29288734    -36.077971      0.029597591    323.69644     -2167.2162      1728         
      5110  -36.502775      0.40926985    -36.093505      0.029597591    452.32133      1211.2938      1728         
      5120  -36.374471      0.27143983    -36.103031      0.029597591    299.99284      1686.4267      1728         
      5130  -36.265448      0.15699033    -36.108458      0.029597591    173.50429      79.025107      1728         
      5140  -36.474579      0.35825757    -36.116321      0.029597591    395.94302      1041.0106      1728         
      5150  -36.518369      0.39472434    -36.123645      0.029597591    436.24577      339.62042      1728         
      5160  -36.319123      0.19041827    -36.128705      0.029597591    210.44855     -2032.4494      1728         
      5170  -36.311304      0.17736476    -36.13394       0.029597591    196.02193      563.06064      1728         
      5180  -36.378481      0.24053923    -36.137941      0.029597591    265.84178     -789.37109      1728         
      5190  -36.382636      0.24345419    -36.139182      0.029597591    269.06337     -1818.9663      1728         
      5200  -36.415892      0.27511884    -36.140773      0.029597591    304.05885      1459.6211      1728         
      5210  -36.44025       0.29558465    -36.144666      0.029597591    326.67748     -929.53724      1728         
      5220  -36.447496      0.29907451    -36.148422      0.029597591    330.53445      821.51419      1728         
      5230  -36.371919      0.22122553    -36.150693      0.029597591    244.49646      2038.4927      1728         
      5240  -36.332717      0.1801398     -36.152578      0.029597591    199.08887      99.756701      1728         
      5250  -36.527179      0.37128106    -36.155898      0.029597591    410.33647     -437.3254       1728         
      5260  -36.466845      0.30742928    -36.159416      0.029597591    339.76806      1227.0137      1728         
      5270  -36.24823       0.086888373   -36.161342      0.029597591    96.028244     -2793.2114      1728         
      5280  -36.361036      0.19777029    -36.163266      0.029597591    218.57394      857.78226      1728         
      5290  -36.416206      0.25175872    -36.164447      0.029597591    278.24146     -1082.8127      1728         
      5300  -36.332026      0.16847965    -36.163546      0.029597591    186.20218     -817.1542       1728         
      5310  -36.444959      0.28187804    -36.163081      0.029597591    311.52906      771.33406      1728         
      5320  -36.406065      0.24225681    -36.163808      0.029597591    267.74003      1252.8124      1728         
      5330  -36.32083       0.15693413    -36.163896      0.029597591    173.44218     -520.54909      1728         
      5340  -36.409806      0.24782113    -36.161985      0.029597591    273.88968      3083.3082      1728         
      5350  -36.419053      0.25875145    -36.160302      0.029597591    285.96976     -1735.0352      1728         
      5360  -36.451841      0.2920474     -36.159793      0.029597591    322.76814      111.83174      1728         
      5370  -36.387442      0.22935765    -36.158084      0.029597591    253.484        71.162525      1728         
      5380  -36.27436       0.11860565    -36.155754      0.029597591    131.08189     -1456.2418      1728         
      5390  -36.400934      0.24685449    -36.154079      0.029597591    272.82134     -747.78227      1728         
      5400  -36.473139      0.32409568    -36.149043      0.029597591    358.18761      972.35567      1728         
      5410  -36.355701      0.21344887    -36.142253      0.029597591    235.90176     -1945.267       1728         
      5420  -36.419779      0.28309689    -36.136682      0.029597591    312.87612      2369.7023      1728         
      5430  -36.393816      0.26268304    -36.131133      0.029597591    290.31491      911.29994      1728         
      5440  -36.338152      0.21398467    -36.124167      0.029597591    236.49392     -291.31937      1728         
      5450  -36.418574      0.30578677    -36.112787      0.029597591    337.95277      1594.4924      1728         
      5460  -36.470896      0.36995125    -36.100944      0.029597591    408.86678     -1033.7973      1728         
      5470  -36.331188      0.24007081    -36.091117      0.029597591    265.32408     -1510.9464      1728         
      5480  -36.267173      0.1872534     -36.079919      0.029597591    206.95076      980.61504      1728         
      5490  -36.326711      0.26032665    -36.066384      0.029597591    287.71065     -1852.0592      1728         
      5500  -36.431566      0.37859288    -36.052974      0.029597591    418.41743     -921.27256      1728         
      5510  -36.345342      0.31257704    -36.032765      0.029597591    345.45731      1864.6626      1728         
      5520  -36.348461      0.33701783    -36.011443      0.029597591    372.46906     -1384.4914      1728         
      5530  -36.320158      0.32233136    -35.997826      0.029597591    356.2377       2264.3852      1728         
      5540  -36.305234      0.3188607     -35.986373      0.029597591    352.40196      1530.2003      1728         
      5550  -36.286256      0.32036007    -35.965896      0.029597591    354.05905     -828.94146      1728         
      5560  -36.395296      0.44248774    -35.952808      0.029597591    489.03344      108.20748      1728         
      5570  -36.332324      0.38913987    -35.943184      0.029597591    430.07387      464.77886      1728         
      5580  -36.121564      0.18893341    -35.932631      0.029597591    208.8075      -3072.5508      1728         
      5590  -36.201977      0.27670548    -35.925271      0.029597591    305.8124       1773.7113      1728         
      5600  -36.333746      0.41425092    -35.919495      0.029597591    457.82637     -1774.7874      1728         
      5610  -36.268392      0.35814983    -35.910243      0.029597591    395.82396     -681.20051      1728         
      5620  -36.227566      0.32230608    -35.90526       0.029597591    356.20976      1409.3096      1728         
      5630  -36.313559      0.40518142    -35.908377      0.029597591    447.80284      934.96181      1728         
      5640  -36.205781      0.29427195    -35.911509      0.029597591    325.22669     -237.83542      1728         
      5650  -36.203165      0.2853106     -35.917855      0.029597591    315.32269      3283.9931      1728         
      5660  -36.312608      0.37746836    -35.935139      0.029597591    417.17462     -1868.7349      1728         
      5670  -36.387845      0.43450931    -35.953336      0.029597591    480.21576     -102.49875      1728         
      5680  -36.157723      0.18397083    -35.973752      0.029597591    203.32289      90.957329      1728         
      5690  -36.194906      0.1969449     -35.997961      0.029597591    217.66172     -1421.5699      1728         
      5700  -36.40088       0.38065551    -36.020225      0.029597591    420.69703     -911.77959      1728         
      5710  -36.420872      0.37330335    -36.047569      0.029597591    412.57148      1033.787       1728         
      5720  -36.263219      0.18545585    -36.077763      0.029597591    204.96413     -1455.4684      1728         
      5730  -36.503828      0.39339677    -36.110431      0.029597591    434.77855      1624.3554      1728         
      5740  -36.413109      0.27887092    -36.134238      0.029597591    308.20561      1045.1105      1728         
      5750  -36.326808      0.1776932     -36.149114      0.029597591    196.38491     -186.9744       1728         
      5760  -36.485579      0.31173442    -36.173845      0.029597591    344.52606      875.89707      1728         
      5770  -36.497742      0.30544802    -36.192294      0.029597591    337.57839     -337.72033      1728         
      5780  -36.349821      0.14886273    -36.200958      0.029597591    164.52174     -1371.2042      1728         
      5790  -36.403198      0.19213613    -36.211062      0.029597591    212.34712      371.71884      1728         
      5800  -36.411522      0.19198249    -36.219539      0.029597591    212.17732     -818.67282      1728         
      5810  -36.502678      0.27901385    -36.223664      0.029597591    308.36358     -971.08762      1728         
      5820  -36.447827      0.21914727    -36.22868       0.029597591    242.19958      1507.6632      1728         
      5830  -36.35901       0.12626046    -36.232749      0.029597591    139.54192     -223.68126      1728         
      5840  -36.483563      0.2486172     -36.234946      0.029597591    274.76948      998.214        1728         
      5850  -36.474448      0.23928622    -36.235162      0.029597591    264.45697      978.6051       1728         
      5860  -36.38227       0.14824926    -36.234021      0.029597591    163.84374     -532.31988      1728         
      5870  -36.493755      0.25908674    -36.234668      0.029597591    286.34032     -544.92991      1728         
      5880  -36.477107      0.24428193    -36.232825      0.029597591    269.97817      416.13812      1728         
      5890  -36.32314       0.093705256   -36.229435      0.029597591    103.5622      -2095.5303      1728         
      5900  -36.427753      0.20223358    -36.22552       0.029597591    223.50672      923.90618      1728         
      5910  -36.507014      0.28613267    -36.220882      0.029597591    316.23124     -606.56899      1728         
      5920  -36.441976      0.22723286    -36.214743      0.029597591    251.1357      -142.25857      1728         
      5930  -36.329775      0.12171237    -36.208063      0.029597591    134.51541      1433.7013      1728         
      5940  -36.438046      0.23557389    -36.202472      0.029597591    260.35413      1064.6502      1728         
      5950  -36.434168      0.23803249    -36.196136      0.029597591    263.07136     -911.88324      1728         
      5960  -36.431476      0.24520216    -36.186274      0.029597591    270.99521      1872.8084      1728         
      5970  -36.366626      0.19050585    -36.17612       0.029597591    210.54534     -1849.4762      1728         
      5980  -36.398676      0.2284533     -36.170223      0.029597591    252.48452     -371.09888      1728         
      5990  -36.386698      0.22512555    -36.161572      0.029597591    248.80672     -0.7282888      1728         
      6000  -36.357251      0.20948682    -36.147764      0.029597591    231.52294     -1094.4975      1728         
      6010  -36.392853      0.25689091    -36.135962      0.029597591    283.91351     -291.2535       1728         
      6020  -36.519653      0.39798247    -36.121671      0.029597591    439.84663      1799.6702      1728         
      6030  -36.256745      0.15148831    -36.105257      0.029597591    167.42351     -1075.4126      1728         
      6040  -36.329989      0.23494421    -36.095044      0.029597591    259.65821      2349.0885      1728         
      6050  -36.49957       0.42120836    -36.078361      0.029597591    465.51567      227.78848      1728         
      6060  -36.36028       0.29843189    -36.061848      0.029597591    329.82422     -1273.1414      1728         
      6070  -36.301354      0.25423282    -36.047121      0.029597591    280.97581      754.13145      1728         
      6080  -36.375039      0.33912385    -36.035915      0.029597591    374.79661     -691.85621      1728         
      6090  -36.301448      0.27719893    -36.024249      0.029597591    306.35775     -2175.2634      1728         
      6100  -36.294947      0.28332711    -36.01162       0.029597591    313.13056      1590.5903      1728         
      6110  -36.395926      0.39966206    -35.996264      0.029597591    441.7029      -1299.7682      1728         
      6120  -36.403932      0.41874697    -35.985185      0.029597591    462.79536     -165.36449      1728         
      6130  -36.232939      0.26032998    -35.972609      0.029597591    287.71434      2810.1027      1728         
      6140  -36.234733      0.26978957    -35.964944      0.029597591    298.16899     -631.63437      1728         
      6150  -36.470977      0.51593638    -35.95504       0.029597591    570.20822      454.61756      1728         
      6160  -36.27417       0.32959461    -35.944575      0.029597591    364.26498      1034.0649      1728         
      6170  -36.254732      0.31739255    -35.93734       0.029597591    350.77937     -1971.6763      1728         
      6180  -36.361321      0.42693741    -35.934384      0.029597591    471.84737     -378.15808      1728         
      6190  -36.292461      0.36288533    -35.929575      0.029597591    401.05759      475.21772      1728         
      6200  -36.189981      0.2661468     -35.923834      0.029597591    294.14304     -2674.877       1728         
      6210  -36.476251      0.55373822    -35.922512      0.029597591    611.98647      1684.2924      1728         
      6220  -36.400854      0.47651419    -35.92434       0.029597591    526.63917     -112.92602      1728         
      6230  -36.21965       0.29141725    -35.928233      0.029597591    322.07171      338.98652      1728         
      6240  -36.208831      0.26955168    -35.939279      0.029597591    297.90608      2031.942       1728         
      6250  -36.449304      0.49515013    -35.954154      0.029597591    547.23545      514.00084      1728         
      6260  -36.3079        0.33629568    -35.971604      0.029597591    371.67094     -1867.985       1728         
      6270  -36.253141      0.2550969     -35.998044      0.029597591    281.93079      1909.7784      1728         
      6280  -36.264203      0.24154011    -36.022663      0.029597591    266.94794     -2433.9347      1728         
      6290  -36.374454      0.33523503    -36.039219      0.029597591    370.49873     -316.77195      1728         
      6300  -36.264542      0.20286277    -36.061679      0.029597591    224.2021       107.689        1728         
      6310  -36.342832      0.25623091    -36.086601      0.029597591    283.18409     -574.79802      1728         
      6320  -36.509796      0.39676055    -36.113036      0.029597591    438.49617     -205.10319      1728         
      6330  -36.410753      0.27414035    -36.136613      0.029597591    302.97743      2358.9306      1728         
      6340  -36.257805      0.10502834    -36.152777      0.029597591    116.07637     -789.35761      1728         
      6350  -36.502624      0.33258798    -36.170036      0.029597591    367.57322      1709.5662      1728         
      6360  -36.51369       0.32333374    -36.190357      0.029597591    357.34553     -407.0776       1728         
      6370  -36.376494      0.17429622    -36.202198      0.029597591    192.63061     -852.12805      1728         
[...]
     48420  -36.534635      0.15285961    -36.381775      0.029597591    168.93906     -822.5562       1728         
     48430  -36.560291      0.18103275    -36.379258      0.029597591    200.07576      400.30482      1728         
     48440  -36.532027      0.15551821    -36.376509      0.029597591    171.87732     -812.17243      1728         
     48450  -36.550412      0.17701982    -36.373392      0.029597591    195.6407       304.05089      1728         
     48460  -36.51373       0.14440598    -36.369324      0.029597591    159.59618      976.02         1728         
     48470  -36.475761      0.1104562     -36.365304      0.029597591    122.07519      16.288562      1728         
     48480  -36.57658       0.21621855    -36.360361      0.029597591    238.96279      578.03621      1728         
     48490  -36.565889      0.21343374    -36.352456      0.029597591    235.88504      226.43354      1728         
     48500  -36.472333      0.12602786    -36.346306      0.029597591    139.28485     -1092.2626      1728         
     48510  -36.476439      0.13544943    -36.340989      0.029597591    149.69748      122.33978      1728         
     48520  -36.49217       0.15703293    -36.335137      0.029597591    173.55138     -599.19405      1728         
     48530  -36.513551      0.18626498    -36.327286      0.029597591    205.85837     -757.1476       1728         
     48540  -36.536724      0.22053846    -36.316185      0.029597591    243.73711      682.09552      1728         
     48550  -36.494858      0.18974735    -36.30511       0.029597591    209.70706     -182.42642      1728         
     48560  -36.47157       0.17459727    -36.296973      0.029597591    192.96332      365.34666      1728         
     48570  -36.472061      0.18534186    -36.286719      0.029597591    204.83815      1253.3783      1728         
     48580  -36.470123      0.19497881    -36.275144      0.029597591    215.48882     -444.2505       1728         
     48590  -36.546116      0.28387845    -36.262238      0.029597591    313.73989      38.498466      1728         
     48600  -36.494816      0.24688636    -36.24793       0.029597591    272.85657      220.20509      1728         
     48610  -36.34066       0.10278064    -36.237879      0.029597591    113.59223     -1337.4694      1728         
     48620  -36.442643      0.21290206    -36.229741      0.029597591    235.29743      51.664167      1728         
     48630  -36.513454      0.29841667    -36.215038      0.029597591    329.8074      -410.50207      1728         
     48640  -36.410143      0.20847306    -36.20167       0.029597591    230.40254     -701.90624      1728         
     48650  -36.456689      0.26824321    -36.188446      0.029597591    296.45997      1309.1428      1728         
     48660  -36.453254      0.27890883    -36.174345      0.029597591    308.24752      404.07796      1728         
     48670  -36.319657      0.1540453     -36.165612      0.029597591    170.24947      71.348381      1728         
     48680  -36.418957      0.26428395    -36.154673      0.029597591    292.08423      1379.6927      1728         
     48690  -36.486982      0.34863674    -36.138345      0.029597591    385.31017     -1260.0397      1728         
     48700  -36.397845      0.27015798    -36.127687      0.029597591    298.57615     -450.24727      1728         
     48710  -36.319044      0.19963509    -36.119409      0.029597591    220.63489      577.2299       1728         
     48720  -36.356077      0.24735769    -36.108719      0.029597591    273.37748     -1492.7361      1728         
     48730  -36.386647      0.28677529    -36.099871      0.029597591    316.94145     -112.45301      1728         
     48740  -36.434451      0.34403114    -36.090419      0.029597591    380.22011      540.9496       1728         
     48750  -36.388675      0.30975319    -36.078922      0.029597591    342.33642     -890.98979      1728         
     48760  -36.361357      0.2903038     -36.071053      0.029597591    320.84114      1693.6576      1728         
     48770  -36.281615      0.21489535    -36.066719      0.029597591    237.50039      1006.356       1728         
     48780  -36.377085      0.31696029    -36.060125      0.029597591    350.30164     -641.79274      1728         
     48790  -36.397996      0.34527479    -36.052721      0.029597591    381.59458      838.73646      1728         
     48800  -36.332187      0.28256953    -36.049617      0.029597591    312.29329     -848.20016      1728         
     48810  -36.305388      0.25845695    -36.046931      0.029597591    285.64428     -1293.4249      1728         
     48820  -36.305816      0.26218787    -36.043628      0.029597591    289.76766      713.03008      1728         
     48830  -36.232525      0.19072569    -36.041799      0.029597591    210.7883      -730.38591      1728         
     48840  -36.407086      0.36692447    -36.040162      0.029597591    405.5216      -244.24921      1728         
     48850  -36.414827      0.37650412    -36.038323      0.029597591    416.10895      968.50113      1728         
     48860  -36.306684      0.26713258    -36.039551      0.029597591    295.23251     -332.18515      1728         
     48870  -36.311674      0.26967074    -36.042003      0.029597591    298.03767      1195.6637      1728         
     48880  -36.345114      0.29939538    -36.045719      0.029597591    330.88906      675.97153      1728         
     48890  -36.294178      0.24435812    -36.04982       0.029597591    270.06238     -561.53969      1728         
     48900  -36.391877      0.33446441    -36.057413      0.029597591    369.64704      384.38799      1728         
     48910  -36.292817      0.22538763    -36.067429      0.029597591    249.09637     -683.40626      1728         
     48920  -36.336061      0.25989841    -36.076163      0.029597591    287.23738     -1238.6464      1728         
     48930  -36.307152      0.21912084    -36.088031      0.029597591    242.17037      624.08812      1728         
     48940  -36.300864      0.19950592    -36.101358      0.029597591    220.49214     -442.63599      1728         
     48950  -36.41887       0.30158119    -36.117289      0.029597591    333.3048       343.00662      1728         
     48960  -36.455976      0.31284425    -36.143132      0.029597591    345.75264      1123.6097      1728         
     48970  -36.261526      0.098248714   -36.163277      0.029597591    108.58359     -48.088137      1728         
     48980  -36.43724       0.25417756    -36.183062      0.029597591    280.91474      548.67288      1728         
     48990  -36.440422      0.22988086    -36.210541      0.029597591    254.06225      233.74923      1728         
     49000  -36.377637      0.14784081    -36.229796      0.029597591    163.39233     -852.16641      1728         
     49010  -36.436351      0.18609938    -36.250252      0.029597591    205.67535      364.22233      1728         
     49020  -36.462852      0.19237324    -36.270478      0.029597591    212.60917     -593.90417      1728         
     49030  -36.369059      0.087336336   -36.281722      0.029597591    96.523328     -751.44683      1728         
     49040  -36.442773      0.15245189    -36.290321      0.029597591    168.48845      777.29308      1728         
     49050  -36.490123      0.18825463    -36.301869      0.029597591    208.05732     -159.85783      1728         
     49060  -36.436955      0.1284137     -36.308541      0.029597591    141.92166      486.2061       1728         
     49070  -36.461353      0.14879331    -36.31256       0.029597591    164.44502      1185.5469      1728         
     49080  -36.463179      0.14696499    -36.316214      0.029597591    162.42438     -412.18014      1728         
     49090  -36.422468      0.10424857    -36.31822       0.029597591    115.21458      41.743076      1728         
     49100  -36.484528      0.16618912    -36.318339      0.029597591    183.67071      192.88987      1728         
     49110  -36.467231      0.1501988     -36.317032      0.029597591    165.99835     -1295.0399      1728         
     49120  -36.422667      0.10749867    -36.315168      0.029597591    118.80656      411.87274      1728         
     49130  -36.480089      0.16743687    -36.312652      0.029597591    185.04972     -47.811403      1728         
     49140  -36.448161      0.14067873    -36.307482      0.029597591    155.47686     -624.32732      1728         
     49150  -36.41054       0.10844669    -36.302094      0.029597591    119.8543       1114.3355      1728         
     49160  -36.461733      0.16572677    -36.296007      0.029597591    183.15973      366.23083      1728         
     49170  -36.458674      0.17072512    -36.287949      0.029597591    188.68386     -164.2655       1728         
     49180  -36.411505      0.13319547    -36.27831       0.029597591    147.20643      1266.7433      1728         
     49190  -36.419407      0.15018488    -36.269223      0.029597591    165.98297     -658.02162      1728         
     49200  -36.420699      0.16129023    -36.259409      0.029597591    178.2565      -531.495        1728         
     49210  -36.397714      0.14942951    -36.248285      0.029597591    165.14814      274.03912      1728         
     49220  -36.404338      0.16896562    -36.235372      0.029597591    186.73928     -1232.0895      1728         
     49230  -36.425546      0.20257014    -36.222976      0.029597591    223.87869      111.83071      1728         
     49240  -36.401871      0.19150118    -36.21037       0.029597591    211.64537      969.45587      1728         
     49250  -36.359848      0.16177728    -36.198071      0.029597591    178.79479     -341.49579      1728         
     49260  -36.389843      0.20271227    -36.187131      0.029597591    224.03576      1105.5246      1728         
     49270  -36.389308      0.21255573    -36.176752      0.029597591    234.91467      779.90225      1728         
     49280  -36.407916      0.24251129    -36.165405      0.029597591    268.02129     -926.80604      1728         
     49290  -36.344115      0.18771533    -36.156399      0.029597591    207.46128      747.88291      1728         
     49300  -36.302913      0.15176634    -36.151147      0.029597591    167.73079     -347.3801       1728         
     49310  -36.376123      0.23194378    -36.14418       0.029597591    256.34217     -1004.8343      1728         
     49320  -36.337512      0.20079783    -36.136714      0.029597591    221.91994      198.00605      1728         
     49330  -36.318215      0.18611724    -36.132097      0.029597591    205.69509     -530.49098      1728         
     49340  -36.457551      0.33112906    -36.126422      0.029597591    365.96085     -325.77578      1728         
     49350  -36.282708      0.16147077    -36.121238      0.029597591    178.45603      1685.8204      1728         
     49360  -36.258452      0.13936729    -36.119085      0.029597591    154.02747      209.34859      1728         
     49370  -36.493208      0.3785349     -36.114673      0.029597591    418.35334      708.15963      1728         
     49380  -36.360066      0.24876686    -36.111299      0.029597591    274.93488      297.14356      1728         
     49390  -36.26456       0.15431768    -36.110242      0.029597591    170.5505      -569.49899      1728         
     49400  -36.412158      0.30319       -36.108968      0.029597591    335.08284     -407.62799      1728         
     49410  -36.292049      0.18511008    -36.106939      0.029597591    204.58199      8.7981726      1728         
     49420  -36.249191      0.14378592    -36.105405      0.029597591    158.9109      -770.58623      1728         
     49430  -36.451875      0.34891013    -36.102965      0.029597591    385.61232      279.55026      1728         
     49440  -36.383885      0.28219087    -36.101694      0.029597591    311.8748      -534.65204      1728         
     49450  -36.245055      0.14378587    -36.101269      0.029597591    158.91084      606.05239      1728         
     49460  -36.344647      0.24439804    -36.100249      0.029597591    270.1065       1038.2417      1728         
     49470  -36.352899      0.25412345    -36.098775      0.029597591    280.85494      387.34349      1728         
     49480  -36.362224      0.26395098    -36.098273      0.029597591    291.71624      408.93201      1728         
     49490  -36.430894      0.3325443     -36.09835       0.029597591    367.52495      250.19397      1728         
     49500  -36.322069      0.22248744    -36.099582      0.029597591    245.89111     -1291.4064      1728         
     49510  -36.280155      0.17960794    -36.100547      0.029597591    198.50107      116.58945      1728         
     49520  -36.375722      0.27472095    -36.101001      0.029597591    303.61911     -564.13211      1728         
     49530  -36.382002      0.28084104    -36.101161      0.029597591    310.38297     -558.54121      1728         
     49540  -36.39399       0.29109579    -36.102894      0.029597591    321.71644      719.25509      1728         
     49550  -36.382591      0.27583969    -36.106752      0.029597591    304.85552      123.58856      1728         
     49560  -36.302162      0.19255357    -36.109608      0.029597591    212.80846      247.58115      1728         
     49570  -36.353027      0.24138619    -36.111641      0.029597591    266.77783      1341.1284      1728         
     49580  -36.408697      0.29296028    -36.115737      0.029597591    323.77705     -449.45099      1728         
     49590  -36.400554      0.27921902    -36.121335      0.029597591    308.59033     -66.943875      1728         
     49600  -36.397456      0.27010763    -36.127348      0.029597591    298.5205       374.92692      1728         
     49610  -36.34069       0.20606092    -36.134629      0.029597591    227.73667     -1280.4354      1728         
     49620  -36.339228      0.19817792    -36.14105       0.029597591    219.02444     -176.61904      1728         
     49630  -36.454195      0.30600773    -36.148187      0.029597591    338.19698      54.364308      1728         
     49640  -36.446986      0.28642467    -36.160561      0.029597591    316.55396     -799.99815      1728         
     49650  -36.381185      0.20734428    -36.17384       0.029597591    229.15502      1041.3324      1728         
     49660  -36.440943      0.25556967    -36.185374      0.029597591    282.45329      838.82475      1728         
     49670  -36.420679      0.22275128    -36.197927      0.029597591    246.1827      -282.79652      1728         
     49680  -36.407285      0.19601074    -36.211274      0.029597591    216.6293       1014.7454      1728         
     49690  -36.465725      0.24109441    -36.224631      0.029597591    266.45536     -569.71904      1728         
     49700  -36.503051      0.2641303     -36.238921      0.029597591    291.91442     -744.03361      1728         
     49710  -36.373308      0.12220261    -36.251105      0.029597591    135.05722      316.86149      1728         
     49720  -36.412103      0.15411393    -36.257989      0.029597591    170.32532     -631.43809      1728         
     49730  -36.53609       0.26835954    -36.26773       0.029597591    296.58854     -677.45629      1728         
     49740  -36.465228      0.18699174    -36.278236      0.029597591    206.66158      747.94898      1728         
     49750  -36.432658      0.14813451    -36.284523      0.029597591    163.71692     -356.34522      1728         
     49760  -36.561619      0.26945527    -36.292163      0.029597591    297.79953      786.02098      1728         
     49770  -36.428059      0.1303313     -36.297728      0.029597591    144.04098      743.89962      1728         
     49780  -36.465861      0.16537968    -36.300482      0.029597591    182.77613     -203.39506      1728         
     49790  -36.571199      0.26685935    -36.30434       0.029597591    294.93054     -60.920718      1728         
     49800  -36.478975      0.17153737    -36.307437      0.029597591    189.58155     -198.28849      1728         
     49810  -36.451813      0.1438019     -36.308011      0.029597591    158.92856     -1014.6139      1728         
     49820  -36.511757      0.20385128    -36.307905      0.029597591    225.29459      331.72238      1728         
     49830  -36.46788       0.16221033    -36.30567       0.029597591    179.27338     -377.90581      1728         
     49840  -36.503355      0.2002726     -36.303083      0.029597591    221.33946     -133.78057      1728         
     49850  -36.508135      0.2110471     -36.297088      0.029597591    233.24734      693.9301       1728         
     49860  -36.471603      0.18009876    -36.291504      0.029597591    199.04352      136.9186       1728         
     49870  -36.4806        0.19708592    -36.283514      0.029597591    217.81758      258.82385      1728         
     49880  -36.479646      0.20630872    -36.273337      0.029597591    228.01053      570.17697      1728         
     49890  -36.501588      0.24318599    -36.258402      0.029597591    268.76695     -621.47048      1728         
     49900  -36.496229      0.25500616    -36.241223      0.029597591    281.8305      -273.1293       1728         
     49910  -36.440026      0.21788368    -36.222143      0.029597591    240.80308     -324.36577      1728         
     49920  -36.431415      0.22610318    -36.205312      0.029597591    249.88719     -915.71144      1728         
     49930  -36.488062      0.30584368    -36.182219      0.029597591    338.01567      357.38788      1728         
     49940  -36.424766      0.26510711    -36.159659      0.029597591    292.99398      128.16884      1728         
     49950  -36.418308      0.28049512    -36.137813      0.029597591    310.00067      336.89895      1728         
     49960  -36.469369      0.35282482    -36.116545      0.029597591    389.9388       678.61645      1728         
     49970  -36.393301      0.2967974     -36.096503      0.029597591    328.0178       210.2408       1728         
     49980  -36.330321      0.24601958    -36.084301      0.029597591    271.89862     -400.7833       1728         
     49990  -36.480357      0.41060024    -36.069757      0.029597591    453.79167      352.86338      1728         
     50000  -36.396246      0.33940321    -36.056843      0.029597591    375.10536     -1160.7328      1728         
Loop time of 198.709 on 2 procs for 50000 steps with 8 atoms

Performance: 10.870 ns/day, 2.208 hours/ns, 251.624 timesteps/s, 2.013 katom-step/s
249.2% CPU use with 2 MPI tasks x no OpenMP threads

MPI task timing breakdown:
Section |  min time  |  avg time  |  max time  |%varavg| %total
---------------------------------------------------------------
Pair    | 184.32     | 186.75     | 189.18     |  17.8 | 93.98
Neigh   | 0.0058076  | 0.0058102  | 0.0058128  |   0.0 |  0.00
Comm    | 7.2092     | 9.6319     | 12.055     |  78.1 |  4.85
Output  | 0.89692    | 0.91038    | 0.92384    |   1.4 |  0.46
Modify  | 0.98079    | 1.012      | 1.0432     |   3.1 |  0.51
Other   |            | 0.4015     |            |       |  0.20

Nlocal:              4 ave           4 max           4 min
Histogram: 2 0 0 0 0 0 0 0 0 0
Nghost:            140 ave         140 max         140 min
Histogram: 2 0 0 0 0 0 0 0 0 0
Neighs:              0 ave           0 max           0 min
Histogram: 2 0 0 0 0 0 0 0 0 0
FullNghs:           28 ave          28 max          28 min
Histogram: 2 0 0 0 0 0 0 0 0 0

Total # of neighbors = 56
Ave neighs/atom = 7
Neighbor list builds = 234
Dangerous builds = 0

write_data      restart.data
System init for write_data ...
Generated 0 of 3 mixed pair_coeff terms from geometric mixing rule
#
Total wall time: 0:03:20
