LAMMPS data file via write_data, version 2 Aug 2023, timestep = 50000, units = metal

8 atoms
3 atom types

0 12 xlo xhi
0 12 ylo yhi
0 12 zlo zhi
0 0 0 xy xz yz

Masses

1 10.8
2 1
3 14

Atoms # atomic

5 2 6.718071509371246 7.470103546373547 5.827468111745513 0 0 0
1 1 6.678481293748112 6.296050295347414 5.419086265851382 0 0 0
6 2 6.116659668248493 6.174841537763215 4.30949178776366 0 0 0
7 2 7.642865199084617 5.627817377620833 5.800196679410224 0 0 0
2 2 5.595629432745779 6.07010670434016 7.546463347552276 0 0 0
3 2 5.501363055521949 4.712705203559048 6.538051534370317 0 0 0
8 3 5.47368764253398 5.76529963610494 6.574069954785408 0 0 0
4 2 4.466186167017723 6.033886985681879 6.374619013110904 0 0 0

Velocities

5 -18.87338121859113 16.82422738956445 -13.38255832501797
1 2.1226504167252562 -6.428697842806637 -5.963575167367093
6 -14.02227972437853 31.454535908742574 9.665514998518569
7 2.027798344668629 6.352706181630595 2.731139242175644
2 -24.131902131696933 -25.33311119226843 -21.90622813919915
3 -22.128418281526862 -7.996762665819186 0.39917793992457096
8 4.915320885805017 2.7715588979590344 6.044163742395955
4 -14.610933890381093 9.326516509034425 2.2812736976268777
