8
 Atoms. Timestep: 0
B 6 6 5.293
H 6 6.947 7.109
H 6.82 5.527 7.109
H 5.18 5.527 7.109
H 4.994 6.581 4.894
H 6 4.838 4.894
H 7.006 6.581 4.894
N 6 6 6.699
8
 Atoms. Timestep: 20
B 5.96456 5.99673 5.11739
H 6.08877 6.98558 7.1119
H 6.83645 5.47674 7.23268
H 5.15516 5.58681 7.13532
H 4.93518 6.62716 4.88589
H 5.81321 4.80047 4.94737
H 6.91298 6.54683 4.75194
N 6.04578 6.00091 6.83046
8
 Atoms. Timestep: 40
B 5.90803 5.97439 4.95511
H 6.20148 6.96813 7.35203
H 6.84211 5.44052 7.32406
H 5.20515 5.66565 7.36975
H 4.91589 6.65868 4.90347
H 5.78651 4.78119 4.69206
H 6.98907 6.42633 4.56247
N 6.07522 6.02408 6.94574
8
 Atoms. Timestep: 60
B 5.86711 5.95437 4.89603
H 6.33569 6.97241 7.36832
H 6.86482 5.39974 7.28248
H 5.2462 5.70397 7.47027
H 4.93039 6.71113 4.81572
H 5.68005 4.77598 4.66336
H 6.99921 6.43027 4.5452
N 6.09849 6.03574 6.99549
8
 Atoms. Timestep: 80
B 5.84611 5.96039 4.92527
H 6.40852 6.99592 7.21584
H 6.87823 5.35952 7.17723
H 5.26788 5.78261 7.48522
H 4.92262 6.7234 4.75006
H 5.58564 4.79882 4.87169
H 6.94061 6.38323 4.65365
N 6.11847 6.02752 6.97234
8
 Atoms. Timestep: 100
B 5.83447 5.97292 5.07432
H 6.50342 6.96901 7.12708
H 6.86115 5.34998 7.12876
H 5.32745 5.83429 7.48251
H 4.92355 6.74413 4.80102
H 5.59671 4.78061 4.94859
H 6.89893 6.23072 4.66565
N 6.11975 6.02748 6.85737
8
 Atoms. Timestep: 120
B 5.83891 5.9492 5.27823
H 6.52909 6.96557 7.0157
H 6.81901 5.29886 6.95724
H 5.28477 5.89004 7.30229
H 4.9711 6.7861 5.02599
H 5.47705 4.80253 4.95252
H 6.89617 6.2216 4.65852
N 6.1259 6.04178 6.7173
8
 Atoms. Timestep: 140
B 5.80045 5.93906 5.22333
H 6.57412 6.98892 6.94416
H 6.8331 5.308 7.06949
H 5.27449 5.91645 7.25529
H 4.964 6.82033 5.13191
H 5.31686 4.82029 5.113
H 6.8856 6.23183 4.62552
N 6.16479 6.04096 6.74343
8
 Atoms. Timestep: 160
B 5.74058 5.94476 5.07878
H 6.61831 6.98926 7.06017
H 6.89476 5.35324 7.25139
H 5.3837 6.00364 7.47567
H 4.92498 6.83232 4.95363
H 5.28109 4.85027 5.01818
H 6.72694 6.04845 4.43419
N 6.21228 6.03717 6.8511
8
 Atoms. Timestep: 180
B 5.69486 5.92428 5.01816
H 6.71817 6.98621 7.05621
H 6.91796 5.29713 7.13102
H 5.41377 5.96423 7.51563
H 4.95034 6.89862 4.9044
H 5.17314 4.81635 4.95011
H 6.72011 6.0003 4.42845
N 6.24301 6.06114 6.91268
8
 Atoms. Timestep: 200
B 5.67513 5.91031 5.04298
H 6.75079 6.97766 7.08431
H 6.90475 5.27003 6.99509
H 5.47517 5.98447 7.54368
H 4.99565 6.92494 4.98119
H 5.05564 4.83217 5.08237
H 6.82864 6.00431 4.56871
N 6.24986 6.06972 6.87427
8
 Atoms. Timestep: 220
B 5.6956 5.9402 5.19646
H 6.78576 6.9422 6.979
H 6.91091 5.29152 6.98107
H 5.5212 5.9686 7.51469
H 5.01589 6.89137 4.92812
H 5.10318 4.88649 5.1551
H 6.74637 5.83471 4.50358
N 6.22887 6.05942 6.76972
8
 Atoms. Timestep: 240
B 5.71889 5.94151 5.31614
H 6.71695 6.98073 6.79815
H 6.88385 5.25772 6.88074
H 5.43731 6.0404 7.34372
H 5.06829 6.92201 5.0198
H 5.06097 4.93834 5.29075
H 6.62199 5.82372 4.56509
N 6.2319 6.04784 6.68906
8
 Atoms. Timestep: 260
B 5.65632 5.90379 5.21148
H 6.84905 6.94831 6.87965
H 6.90274 5.28687 7.0499
H 5.49964 6.07008 7.41316
H 5.04358 7.00358 5.18269
H 4.87796 4.92971 5.31112
H 6.6592 5.84288 4.53055
N 6.27711 6.06847 6.73631
8
 Atoms. Timestep: 280
B 5.58735 5.90586 5.12864
H 6.91812 6.94875 6.88627
H 6.92411 5.26581 7.1272
H 5.60066 6.2086 7.53936
H 4.97573 6.95871 4.9806
H 4.85658 4.90056 5.15378
H 6.54324 5.75565 4.31494
N 6.3313 6.06998 6.82628
8
 Atoms. Timestep: 300
B 5.54618 5.90956 5.10087
H 7.01756 6.88372 6.74134
H 6.89488 5.21744 7.07495
H 5.63008 6.23444 7.55149
H 4.97764 6.9238 4.92794
H 4.91104 4.92569 5.26116
H 6.52346 5.74787 4.3852
N 6.35332 6.07463 6.85199
8
 Atoms. Timestep: 320
B 5.5595 5.89733 5.16212
H 7.08222 6.83833 6.80294
H 6.81631 5.18464 7.01926
H 5.74094 6.31242 7.56947
H 4.96704 6.95877 5.06694
H 4.85402 4.94956 5.39105
H 6.56077 5.77765 4.54904
N 6.3383 6.07775 6.77213
8
 Atoms. Timestep: 340
B 5.61123 5.91226 5.33286
H 7.12646 6.76001 6.65869
H 6.73597 5.15904 6.93467
H 5.66558 6.31661 7.43128
H 4.96854 6.98415 5.0729
H 4.8285 4.91073 5.32642
H 6.46686 5.70007 4.45119
N 6.31477 6.07986 6.67781
8
 Atoms. Timestep: 360
B 5.58607 5.92418 5.33132
H 7.0709 6.80843 6.56456
H 6.74031 5.16282 6.99755
H 5.66972 6.41423 7.35147
H 5.0198 6.97959 5.14229
H 4.83826 4.95781 5.5418
H 6.42417 5.67439 4.43342
N 6.33623 6.05876 6.66786
8
 Atoms. Timestep: 380
B 5.49386 5.89364 5.21384
H 7.19592 6.75466 6.67027
H 6.86126 5.239 7.13724
H 5.79486 6.40422 7.48521
H 5.00594 6.95801 5.15638
H 4.71415 5.08756 5.52699
H 6.36933 5.65082 4.44795
N 6.39463 6.07538 6.73042
8
 Atoms. Timestep: 400
B 5.44087 5.88089 5.18985
H 7.20213 6.80362 6.62946
H 6.83112 5.16454 7.022
H 5.84783 6.4312 7.5223
H 5.00056 7.04985 4.99951
H 4.5702 5.01119 5.35228
H 6.23865 5.53068 4.3481
N 6.45344 6.0926 6.78824
8
 Atoms. Timestep: 420
B 5.42973 5.89387 5.21216
H 7.23265 6.75155 6.55085
H 6.87713 5.17956 6.9755
H 5.91402 6.39702 7.55682
H 5.05105 7.079 4.96916
H 4.56633 5.02437 5.56774
H 6.29483 5.45463 4.43394
N 6.44449 6.09007 6.75814
8
 Atoms. Timestep: 440
B 5.4795 5.90779 5.31782
H 7.18853 6.76234 6.52749
H 6.85907 5.18982 6.93466
H 5.96965 6.40236 7.51014
H 5.07848 6.96971 5.03916
H 4.60574 5.22676 5.75374
H 6.29304 5.42355 4.55097
N 6.40192 6.07302 6.65791
8
 Atoms. Timestep: 460
B 5.51106 5.90985 5.42962
H 7.17876 6.74438 6.39893
H 6.79961 5.15928 6.82748
H 5.80859 6.40013 7.34599
H 5.16682 6.99982 5.06562
H 4.57925 5.21954 5.69358
H 6.08083 5.3458 4.52628
N 6.40477 6.07898 6.60441
8
 Atoms. Timestep: 480
B 5.41829 5.89092 5.34094
H 7.24063 6.75786 6.46606
H 6.8913 5.21884 7.01513
H 5.9724 6.4767 7.42906
H 5.16068 7.14363 5.07488
H 4.4392 5.20178 5.84972
H 6.06735 5.29545 4.45641
N 6.46506 6.07749 6.64186
8
 Atoms. Timestep: 500
B 5.33054 5.88293 5.26332
H 7.32281 6.67057 6.37544
H 6.97079 5.22705 7.0597
H 6.09959 6.5528 7.48231
H 5.01942 7.04305 4.99197
H 4.41005 5.32882 5.86852
H 6.02239 5.30156 4.45462
N 6.52751 6.08154 6.70593
8
 Atoms. Timestep: 520
B 5.28875 5.89242 5.28766
H 7.33962 6.62874 6.27126
H 6.83191 5.15327 6.98919
H 6.15695 6.59635 7.46675
H 5.0751 6.95615 4.93994
H 4.4353 5.25448 5.71478
H 5.90047 5.24564 4.49864
N 6.5673 6.09487 6.71229
8
 Atoms. Timestep: 540
B 5.32298 5.88673 5.36807
H 7.43399 6.51253 6.313
H 6.80208 5.17116 6.96813
H 6.2856 6.62026 7.44914
H 5.13146 7.07104 5.02209
H 4.37376 5.25918 5.8698
H 5.99502 5.22092 4.55673
N 6.52071 6.0978 6.62896
8
 Atoms. Timestep: 560
B 5.42441 5.90266 5.4828
H 7.3513 6.46063 6.12574
H 6.68629 5.16342 6.95622
H 6.18247 6.66463 7.29884
H 5.03576 7.08609 5.06997
H 4.41245 5.40787 6.12945
H 5.95608 5.22078 4.57457
N 6.47086 6.07491 6.54217
8
 Atoms. Timestep: 580
B 5.36482 5.92031 5.48778
H 7.38441 6.45104 6.10681
H 6.72357 5.18908 7.01653
H 6.16144 6.75095 7.16971
H 5.13681 7.00652 5.08035
H 4.51107 5.36471 6.09434
H 5.68222 5.17319 4.63344
N 6.51861 6.06616 6.54215
8
 Atoms. Timestep: 600
B 5.21815 5.88605 5.41555
H 7.53669 6.39121 6.20097
H 6.85222 5.26889 7.14653
H 6.40222 6.75214 7.29595
H 5.11905 7.00359 5.09706
H 4.33389 5.48234 6.09229
H 5.62405 5.12043 4.56783
N 6.61256 6.08665 6.57649
8
 Atoms. Timestep: 620
B 5.14136 5.86899 5.39181
H 7.49152 6.33564 6.01417
H 6.8288 5.19022 7.05456
H 6.50249 6.83415 7.25247
H 5.01671 7.09605 4.96187
H 4.19737 5.58766 6.20869
H 5.65543 5.06018 4.55297
N 6.68435 6.09372 6.62023
8
 Atoms. Timestep: 640
B 5.14398 5.9118 5.43338
H 7.44364 6.26388 5.9012
H 6.85943 5.22458 7.09358
H 6.6177 6.80565 7.26642
H 5.03191 7.01295 4.82127
H 4.29179 5.44846 6.21509
H 5.5126 4.96967 4.7606
N 6.67771 6.08774 6.5872
8
 Atoms. Timestep: 660
B 5.22246 5.90673 5.53969
H 7.47331 6.22436 5.92199
H 6.82595 5.22226 7.00741
H 6.6893 6.83532 7.14265
H 5.10185 6.8939 4.98726
H 4.34548 5.70069 6.27476
H 5.53833 5.01948 4.85479
N 6.60166 6.07945 6.49585
8
 Atoms. Timestep: 680
B 5.31269 5.90652 5.65839
H 7.37118 6.16572 5.75125
H 6.65624 5.23078 6.99109
H 6.42364 6.8361 7.03314
H 5.20497 6.98039 5.04128
H 4.37629 5.86468 6.44545
H 5.48087 4.94323 4.84346
N 6.56498 6.07069 6.41023
8
 Atoms. Timestep: 700
B 5.21826 5.93084 5.62157
H 7.47436 6.22917 5.81986
H 6.90039 5.29707 7.07539
H 6.59065 6.91574 6.94262
H 5.16283 7.02035 4.88453
H 4.3909 5.76083 6.60943
H 5.17898 4.82923 4.97081
N 6.62462 6.04968 6.42456
8
 Atoms. Timestep: 720
B 5.07662 5.90716 5.58764
H 7.5135 6.09405 5.74475
H 6.96597 5.29887 7.10911
H 6.73618 6.89558 7.02496
H 5.00421 6.88558 4.90995
H 4.32982 5.99486 6.5286
H 5.13329 4.90201 5.00773
N 6.73497 6.06663 6.44913
8
 Atoms. Timestep: 740
B 5.01488 5.90982 5.61428
H 7.491 6.07043 5.66776
H 6.82437 5.21841 7.00967
H 6.86303 6.93282 6.95256
H 5.05264 6.81467 4.89563
H 4.27615 6.04131 6.50532
H 5.18167 4.86098 5.08461
N 6.78217 6.07402 6.44354
8
 Atoms. Timestep: 760
B 5.06924 5.94126 5.66334
H 7.48678 5.9764 5.65549
H 6.90591 5.2677 7.02845
H 6.97789 6.85623 6.98435
H 5.10369 6.8474 4.77079
H 4.26933 5.95279 6.62878
H 5.13008 4.70898 5.24229
N 6.72704 6.07328 6.3918
8
 Atoms. Timestep: 780
B 5.20242 5.93821 5.73902
H 7.35643 5.99218 5.55487
H 6.80979 5.24514 6.98263
H 6.84583 6.9339 6.81353
H 5.00198 6.80607 4.82736
H 4.40891 6.19023 6.69292
H 5.11487 4.79286 5.25879
N 6.64829 6.05057 6.34628
8
 Atoms. Timestep: 800
B 5.20881 5.94126 5.77845
H 7.35617 5.93469 5.5305
H 6.83065 5.33004 7.03859
H 6.69028 6.94809 6.75175
H 5.16697 6.77491 4.95469
H 4.54785 6.22595 6.71696
H 5.08144 4.87626 5.36632
N 6.63367 6.03896 6.29952
8
 Atoms. Timestep: 820
B 5.09665 5.94729 5.76467
H 7.48078 5.92812 5.57919
H 6.97295 5.38484 7.08202
H 6.90761 6.98318 6.66443
H 5.11633 6.7966 4.90486
H 4.4329 6.16586 6.75636
H 4.87631 4.7788 5.38439
N 6.71209 6.03807 6.30926
8
 Atoms. Timestep: 840
B 5.02728 5.94469 5.76355
H 7.36539 5.75628 5.48508
H 6.96044 5.37762 7.10375
H 6.98123 6.99738 6.63866
H 4.871 6.81044 4.82437
H 4.37058 6.273 6.7954
H 4.89363 4.73257 5.32074
N 6.79022 6.04651 6.32465
8
 Atoms. Timestep: 860
B 5.01955 5.95271 5.78273
H 7.36512 5.71198 5.48304
H 6.9194 5.39896 7.10396
H 7.13119 6.9683 6.54772
H 4.94819 6.77119 4.87976
H 4.45134 6.22786 6.81683
H 5.03783 4.81139 5.46532
N 6.76684 6.04443 6.30066
8
 Atoms. Timestep: 880
B 5.12074 5.96593 5.83879
H 7.32846 5.61433 5.50516
H 6.86964 5.44026 7.09013
H 7.09398 6.95895 6.49675
H 5.02422 6.71731 4.9533
H 4.46897 6.17869 6.80221
H 4.96974 4.83518 5.53861
N 6.69579 6.04459 6.25102
8
 Atoms. Timestep: 900
B 5.19957 5.96654 5.88118
H 7.24462 5.64061 5.42432
H 6.8281 5.49319 7.11525
H 6.90098 7.01309 6.36491
H 4.96718 6.7552 4.94045
H 4.54992 6.35258 6.87903
H 4.88363 4.78058 5.47558
N 6.66216 6.02337 6.23165
8
 Atoms. Timestep: 920
B 5.08404 5.9664 5.86752
H 7.3698 5.63827 5.47263
H 7.05314 5.53995 7.09872
H 6.9694 7.00401 6.34969
H 5.02156 6.81074 4.91046
H 4.64939 6.41008 6.9531
H 4.86964 4.74587 5.6147
N 6.71139 6.01536 6.22792
8
 Atoms. Timestep: 940
B 5.00841 5.97029 5.88097
H 7.36386 5.62532 5.41236
H 7.00723 5.49921 7.10028
H 7.08484 6.99501 6.35181
H 4.91218 6.65658 4.91797
H 4.46213 6.3689 6.86009
H 4.7149 4.87503 5.71109
N 6.79743 6.02156 6.22081
8
 Atoms. Timestep: 960
B 5.00387 5.9784 5.90587
H 7.27656 5.56245 5.3775
H 6.97384 5.4275 7.04098
H 7.16592 6.96802 6.35482
H 4.84906 6.58433 4.8992
H 4.48685 6.50404 6.86388
H 4.79803 4.79207 5.73045
N 6.80057 6.02828 6.2078
8
 Atoms. Timestep: 980
B 5.07623 5.99165 5.92528
H 7.2287 5.59248 5.34524
H 7.00828 5.44533 7.00603
H 7.20099 6.9082 6.34018
H 4.9117 6.61154 4.83293
H 4.66122 6.57314 6.95984
H 4.94834 4.68232 5.91836
N 6.71554 6.01987 6.18312
8
 Atoms. Timestep: 1000
B 5.18709 5.99472 5.97261
H 7.15732 5.58456 5.30603
H 6.90789 5.42698 6.98081
H 6.98213 6.97409 6.2667
H 4.89356 6.51203 4.87918
H 4.632 6.55119 6.90621
H 4.73532 4.86363 5.9899
N 6.67652 6.01039 6.15188
8
 Atoms. Timestep: 1020
B 5.08278 5.98655 5.99214
H 7.25062 5.60169 5.30051
H 7.08316 5.53434 6.99427
H 7.01287 6.96329 6.24187
H 4.93444 6.52321 4.94777
H 4.73695 6.70744 6.88834
H 4.73743 4.8851 5.98858
N 6.72504 5.99508 6.13449
8
 Atoms. Timestep: 1040
B 4.96958 6.00316 5.99031
H 7.27697 5.53526 5.3067
H 7.21762 5.52216 6.95693
H 7.12446 6.95111 6.11517
H 4.84444 6.55014 4.91222
H 4.73474 6.72024 6.96635
H 4.71717 4.77924 6.09792
N 6.80094 5.99348 6.13634
8
 Atoms. Timestep: 1060
B 4.98058 6.02376 6.01715
H 7.12865 5.42327 5.27972
H 7.1096 5.56359 7.00389
H 7.18664 6.93508 6.08551
H 4.66754 6.46705 4.88033
H 4.54116 6.64371 6.99843
H 4.59873 4.79176 6.15035
N 6.84125 5.99428 6.11257
8
 Atoms. Timestep: 1080
B 5.03376 6.01305 6.06033
H 7.15082 5.35898 5.34137
H 7.05768 5.54908 6.96087
H 7.29468 6.8423 5.96775
H 4.79983 6.47413 4.95742
H 4.69803 6.74574 6.94436
H 4.84237 4.84915 6.12489
N 6.75657 6.0029 6.08651
8
 Atoms. Timestep: 1100
B 5.15639 6.02215 6.06744
H 6.99423 5.30509 5.3318
H 7.02195 5.66682 6.97371
H 7.11784 6.87728 5.93261
H 4.84105 6.47539 5.01386
H 4.87638 6.73132 7.01054
H 4.87535 4.88043 6.25024
N 6.6703 5.98754 6.06559
8
 Atoms. Timestep: 1120
B 5.14519 6.0416 6.09059
H 7.08224 5.32461 5.30384
H 7.09304 5.69747 6.95759
H 6.9533 6.89109 5.76768
H 4.68848 6.4496 5.01444
H 4.84333 6.7579 7.07767
H 4.58736 4.89986 6.35187
N 6.71316 5.96651 6.05057
8
 Atoms. Timestep: 1140
B 4.96936 6.04047 6.1548
H 7.23195 5.27093 5.34178
H 7.31228 5.80048 6.88134
H 7.16507 6.85109 5.77956
H 4.75632 6.5171 5.01295
H 4.90952 6.94088 6.9826
H 4.6348 4.84339 6.35909
N 6.79435 5.95286 6.0093
8
 Atoms. Timestep: 1160
B 4.90602 6.06172 6.17683
H 7.0904 5.20085 5.30238
H 7.24558 5.71211 6.89563
H 7.1789 6.8044 5.59701
H 4.63785 6.39767 5.05907
H 4.81135 6.86275 7.04717
H 4.65295 4.98903 6.48345
N 6.87129 5.95483 5.99035
8
 Atoms. Timestep: 1180
B 4.96016 6.08335 6.1864
H 6.92459 5.11858 5.34014
H 7.29952 5.77504 6.85452
H 7.2804 6.76176 5.61685
H 4.47126 6.29612 5.11809
H 4.74118 6.86958 7.09531
H 4.6918 4.97568 6.58375
N 6.8444 5.95029 5.96697
8
 Atoms. Timestep: 1200
B 5.08435 6.07532 6.22198
H 6.93579 5.12327 5.35344
H 7.21891 5.71469 6.80884
H 7.24498 6.64156 5.46884
H 4.59915 6.32611 5.09578
H 4.95084 7.07789 6.97611
H 4.89758 4.82982 6.6267
N 6.71727 5.96244 5.95945
8
 Atoms. Timestep: 1220
B 5.21969 6.07588 6.23236
H 6.76139 5.08216 5.34302
H 7.13082 5.87191 6.81744
H 6.94694 6.78327 5.52271
H 4.69145 6.24134 5.12369
H 5.10469 7.00316 6.99877
H 4.79788 5.07266 6.81935
N 6.64244 5.93765 5.93035
8
 Atoms. Timestep: 1240
B 5.10186 6.10253 6.29045
H 7.01729 5.14892 5.23257
H 7.3775 5.83557 6.67256
H 6.91307 6.7142 5.35991
H 4.51633 6.21169 5.2635
H 5.12371 7.09383 6.96436
H 4.72597 5.216 6.89537
N 6.71615 5.90525 5.90245
8
 Atoms. Timestep: 1260
B 4.95843 6.13111 6.37232
H 6.97401 5.0273 5.2556
H 7.49413 5.87822 6.60382
H 7.08002 6.70435 5.34055
H 4.41055 6.23602 5.28257
H 5.12176 7.26643 6.86243
H 4.75619 5.09885 7.04687
N 6.81516 5.88385 5.83904
8
 Atoms. Timestep: 1280
B 4.93134 6.16627 6.4067
H 6.84215 4.97446 5.27205
H 7.36834 5.78383 6.66212
H 7.11782 6.61151 5.17953
H 4.36944 6.05994 5.30407
H 5.00656 7.25013 7.0147
H 4.80111 5.16261 7.22733
N 6.85973 5.88306 5.79337
8
 Atoms. Timestep: 1300
B 5.00125 6.17084 6.42497
H 6.79829 4.93945 5.31173
H 7.44914 5.80503 6.56393
H 7.28446 6.51563 5.18751
H 4.35465 5.998 5.43259
H 4.95536 7.23407 6.92513
H 4.93571 5.26158 7.19186
N 6.78635 5.88587 5.78264
8
 Atoms. Timestep: 1320
B 5.14343 6.15059 6.40664
H 6.66043 4.94803 5.32845
H 7.32745 5.77972 6.59658
H 7.04405 6.53925 5.12061
H 4.39746 5.99653 5.47119
H 5.11879 7.30076 6.76413
H 5.10959 5.29296 7.19615
N 6.68523 5.8941 5.80647
8
 Atoms. Timestep: 1340
B 5.2656 6.14453 6.37308
H 6.62764 4.9465 5.31255
H 7.32207 5.91822 6.55348
H 6.79139 6.63361 5.17081
H 4.4336 5.92203 5.46896
H 5.30487 7.34064 6.81466
H 5.07008 5.3743 7.39008
N 6.59871 5.87891 5.81568
8
 Atoms. Timestep: 1360
B 5.18059 6.17223 6.45376
H 6.8197 4.93181 5.2712
H 7.45762 5.93407 6.41481
H 6.81622 6.54976 5.04102
H 4.39232 5.99812 5.52786
H 5.29772 7.35727 6.75175
H 5.00514 5.40445 7.44463
N 6.64721 5.85467 5.77197
8
 Atoms. Timestep: 1380
B 5.08784 6.20265 6.524
H 6.72236 4.83515 5.37154
H 7.4882 5.98353 6.39978
H 6.82941 6.48434 4.94104
H 4.30509 6.04666 5.63988
H 5.21015 7.34113 6.77965
H 5.04178 5.43508 7.38868
N 6.73245 5.83475 5.71283
8
 Atoms. Timestep: 1400
B 5.08305 6.22363 6.5319
H 6.70627 4.79994 5.45694
H 7.51905 5.98936 6.34227
H 6.90814 6.35429 4.83878
H 4.26611 5.95966 5.6579
H 5.21325 7.37849 6.9499
H 5.12888 5.41457 7.42371
N 6.72581 5.83496 5.6961
8
 Atoms. Timestep: 1420
B 5.17418 6.21155 6.51361
H 6.66957 4.79459 5.54345
H 7.48283 6.02297 6.31541
H 6.8753 6.25538 4.79913
H 4.30814 5.99205 5.64384
H 5.23258 7.41538 6.90264
H 5.19917 5.33923 7.45928
N 6.65366 5.84976 5.71062
8
 Atoms. Timestep: 1440
B 5.29373 6.1884 6.47413
H 6.58594 4.79342 5.60378
H 7.38522 6.14233 6.32113
H 6.61703 6.34248 4.84782
H 4.38893 6.02968 5.69824
H 5.34657 7.34084 6.77998
H 5.20182 5.41678 7.42609
N 6.57873 5.85005 5.74013
8
 Atoms. Timestep: 1460
B 5.26295 6.20596 6.50597
H 6.77123 4.81503 5.45284
H 7.46054 6.1363 6.19981
H 6.5397 6.32001 4.83274
H 4.37365 5.98488 5.71717
H 5.46105 7.3553 6.7811
H 5.21451 5.54817 7.46938
N 6.58139 5.82978 5.73157
8
 Atoms. Timestep: 1480
B 5.17492 6.23655 6.589
H 6.75471 4.76062 5.44684
H 7.50947 6.13206 6.15599
H 6.63228 6.32685 4.78629
H 4.2528 6.00098 5.77725
H 5.36645 7.48291 6.75341
H 5.19359 5.56538 7.62686
N 6.65726 5.79839 5.66082
8
 Atoms. Timestep: 1500
B 5.14904 6.26813 6.62466
H 6.66859 4.73941 5.48104
H 7.51574 6.02355 6.19583
H 6.68294 6.23956 4.70809
H 4.21451 5.93085 5.90868
H 5.24704 7.49337 6.75732
H 5.26563 5.55499 7.66169
N 6.68542 5.79453 5.62146
8
 Atoms. Timestep: 1520
B 5.18775 6.27135 6.60687
H 6.57837 4.74391 5.50181
H 7.53557 5.99662 6.11298
H 6.79105 6.2153 4.71951
H 4.31116 5.82295 5.95997
H 5.28368 7.41704 6.77011
H 5.46036 5.64193 7.59479
N 6.62943 5.80233 5.639
8
 Atoms. Timestep: 1540
B 5.32023 6.23524 6.55623
H 6.47786 4.76704 5.5176
H 7.42086 5.96475 6.22345
H 6.57036 6.24342 4.7488
H 4.31757 5.80257 5.97076
H 5.29494 7.45922 6.64542
H 5.51363 5.69703 7.60927
N 6.55331 5.82332 5.67406
8
 Atoms. Timestep: 1560
B 5.36835 6.23032 6.55691
H 6.51095 4.7595 5.44438
H 7.44041 6.06576 6.07911
H 6.49005 6.36206 4.83334
H 4.31181 5.7976 6.01786
H 5.36053 7.51577 6.50571
H 5.48529 5.75465 7.70701
N 6.51591 5.80416 5.68267
8
 Atoms. Timestep: 1580
B 5.25687 6.2849 6.64966
H 6.66104 4.74519 5.32448
H 7.51942 5.99858 5.98938
H 6.41202 6.23727 4.73591
H 4.32513 5.80341 6.0838
H 5.43121 7.46923 6.56492
H 5.54695 5.85978 7.77765
N 6.58071 5.77218 5.61907
8
 Atoms. Timestep: 1600
B 5.21575 6.3212 6.71981
H 6.60207 4.68013 5.47344
H 7.52741 6.09227 5.90325
H 6.50313 6.2115 4.67177
H 4.22897 5.87424 6.2282
H 5.28166 7.49115 6.63893
H 5.5172 5.8641 7.77831
N 6.62925 5.73704 5.5494
8
 Atoms. Timestep: 1620
B 5.24173 6.33276 6.7343
H 6.62019 4.68357 5.54839
H 7.52759 6.0055 5.91897
H 6.50735 5.97738 4.56282
H 4.20174 5.81012 6.25881
H 5.26718 7.58613 6.65205
H 5.61095 5.78968 7.74629
N 6.60388 5.75392 5.53869
8
 Atoms. Timestep: 1640
B 5.32229 6.30709 6.6738
H 6.50141 4.71059 5.72505
H 7.46171 6.1192 5.82113
H 6.48544 5.97911 4.59772
H 4.31151 5.74707 6.20982
H 5.41321 7.56756 6.69251
H 5.79948 5.8282 7.71625
N 6.52475 5.76662 5.57999
8
 Atoms. Timestep: 1660
B 5.45263 6.27658 6.59475
H 6.54429 4.72248 5.70761
H 7.37117 6.163 5.8835
H 6.13414 5.97343 4.70235
H 4.38751 5.85766 6.31327
H 5.39983 7.4511 6.5799
H 5.75616 5.85148 7.70964
N 6.45132 5.78534 5.63142
8
 Atoms. Timestep: 1680
B 5.41586 6.31245 6.68709
H 6.66288 4.69369 5.55656
H 7.37304 6.23131 5.57694
H 6.13645 6.02817 4.69244
H 4.32981 5.85727 6.33505
H 5.48925 7.50462 6.44376
H 5.76508 5.93073 7.78215
N 6.46802 5.74148 5.59657
8
 Atoms. Timestep: 1700
B 5.33162 6.37114 6.81064
H 6.71432 4.65227 5.51143
H 7.43663 6.15662 5.57628
H 6.04665 5.86806 4.63504
H 4.2781 5.81425 6.40534
H 5.52653 7.59952 6.53762
H 5.81835 6.09522 7.88006
N 6.52842 5.70048 5.48991
8
 Atoms. Timestep: 1720
B 5.33177 6.41725 6.85284
H 6.681 4.62962 5.62312
H 7.42027 6.18315 5.43656
H 6.15102 5.85305 4.54641
H 4.26836 5.87425 6.63956
H 5.28328 7.61902 6.63959
H 5.84347 6.04126 7.88882
N 6.54068 5.66389 5.44105
8
 Atoms. Timestep: 1740
B 5.36195 6.42305 6.84358
H 6.67357 4.65581 5.6613
H 7.44166 6.07226 5.46719
H 6.14264 5.65528 4.52008
H 4.37306 5.81498 6.67322
H 5.32766 7.5621 6.60182
H 6.06197 6.00271 7.75943
N 6.49074 5.69063 5.45469
8
 Atoms. Timestep: 1760
B 5.46864 6.36278 6.75598
H 6.50369 4.72346 5.88084
H 7.32505 6.17166 5.46176
H 6.0659 5.72103 4.57673
H 4.41962 5.71451 6.65881
H 5.46676 7.57266 6.5487
H 6.20002 6.15594 7.73489
N 6.41126 5.71598 5.5095
8
 Atoms. Timestep: 1780
B 5.59828 6.33291 6.66205
H 6.55788 4.69192 5.73996
H 7.25382 6.18629 5.49961
H 5.8248 5.77937 4.72604
H 4.47886 5.76095 6.79712
H 5.3409 7.55577 6.42343
H 6.14683 6.16096 7.72064
N 6.33825 5.73359 5.57874
8
 Atoms. Timestep: 1800
B 5.54017 6.40537 6.79021
H 6.59519 4.63101 5.54557
H 7.2198 6.17732 5.24836
H 5.78307 5.82802 4.72312
H 4.52475 5.74977 6.80629
H 5.41279 7.5103 6.28183
H 6.31166 6.28102 7.7382
N 6.36564 5.67468 5.52012
8
 Atoms. Timestep: 1820
B 5.49837 6.45821 6.90166
H 6.58708 4.59148 5.56207
H 7.28175 6.09132 5.19138
H 5.73686 5.69868 4.67063
H 4.51294 5.81288 7.00696
H 5.402 7.53953 6.44233
H 6.32003 6.51888 7.81718
N 6.39835 5.62854 5.40935
8
 Atoms. Timestep: 1840
B 5.52639 6.5034 6.92952
H 6.58704 4.59749 5.6448
H 7.26788 6.04847 5.10714
H 5.81297 5.62388 4.56082
H 4.55177 5.78839 7.18653
H 5.19995 7.60389 6.48751
H 6.34079 6.40529 7.83261
N 6.38247 5.60692 5.37866
8
 Atoms. Timestep: 1860
B 5.56534 6.49354 6.90288
H 6.54524 4.62744 5.71907
H 7.23879 6.04804 5.17569
H 5.78645 5.54014 4.58424
H 4.66287 5.65547 7.09431
H 5.23128 7.61148 6.44395
H 6.54968 6.39792 7.58551
N 6.33429 5.62788 5.41468
8
 Atoms. Timestep: 1880
B 5.6458 6.41278 6.77639
H 6.49597 4.68709 5.83746
H 7.16029 6.10614 5.21545
H 5.68603 5.60275 4.68404
H 4.74124 5.71324 7.17585
H 5.3201 7.5383 6.47744
H 6.60621 6.54411 7.52837
N 6.27254 5.66795 5.4897
8
 Atoms. Timestep: 1900
B 5.70763 6.39933 6.72233
H 6.50981 4.66615 5.72086
H 7.06977 6.14565 5.15762
H 5.56084 5.6563 4.79501
H 4.83654 5.77378 7.24491
H 5.27431 7.43697 6.31708
H 6.58458 6.48364 7.58865
N 6.23727 5.68041 5.53815
8
 Atoms. Timestep: 1920
B 5.68513 6.4749 6.84725
H 6.57748 4.62159 5.60591
H 7.025 6.13846 5.02678
H 5.48031 5.6208 4.83409
H 4.76089 5.70569 7.19799
H 5.29787 7.50857 6.26758
H 6.69109 6.57724 7.53952
N 6.25485 5.62141 5.46695
8
 Atoms. Timestep: 1940
B 5.67893 6.50752 6.90442
H 6.61095 4.6118 5.62184
H 6.99129 6.08821 4.88641
H 5.48941 5.47811 4.77326
H 4.75185 5.81089 7.35991
H 5.31126 7.61867 6.4738
H 6.63786 6.6838 7.61075
N 6.2625 5.58773 5.4047
8
 Atoms. Timestep: 1960
B 5.69759 6.52364 6.89473
H 6.6606 4.6889 5.74569
H 6.9784 6.06856 4.87743
H 5.48412 5.36914 4.78185
H 4.87112 5.82939 7.39284
H 5.28204 7.54957 6.45146
H 6.68236 6.50362 7.60015
N 6.23624 5.59547 5.40335
8
 Atoms. Timestep: 1980
B 5.73695 6.47909 6.82392
H 6.65194 4.75048 5.84808
H 6.87841 6.15242 4.91281
H 5.46407 5.34687 4.84467
H 4.88199 5.74957 7.26098
H 5.36298 7.54335 6.4059
H 6.83326 6.49687 7.41635
N 6.19773 5.62766 5.46945
8
 Atoms. Timestep: 2000
B 5.78436 6.42385 6.73367
H 6.69195 4.75699 5.75276
H 6.83141 6.17796 4.93948
H 5.38042 5.38129 4.96197
H 4.88287 5.80123 7.36531
H 5.39811 7.57369 6.44424
H 6.78548 6.60872 7.43049
N 6.16848 5.65168 5.5244
8
 Atoms. Timestep: 2020
B 5.78443 6.48834 6.82569
H 6.6551 4.68561 5.67045
H 6.74225 6.18437 4.83423
H 5.33156 5.42773 4.96823
H 4.9432 5.82267 7.4389
H 5.30702 7.497 6.26947
H 6.79277 6.5681 7.47737
N 6.18259 5.6101 5.47023
8
 Atoms. Timestep: 2040
B 5.77236 6.54566 6.91805
H 6.67486 4.64331 5.56429
H 6.80547 6.08018 4.78107
H 5.31543 5.36087 4.94865
H 4.9799 5.83889 7.4135
H 5.31264 7.51187 6.38921
H 6.84935 6.72405 7.43641
N 6.18006 5.56777 5.40796
8
 Atoms. Timestep: 2060
B 5.7845 6.5553 6.90739
H 6.61975 4.63347 5.66262
H 6.75566 6.07435 4.73763
H 5.33858 5.35021 4.87705
H 5.04284 5.81331 7.53842
H 5.27827 7.5934 6.55663
H 6.88758 6.79126 7.44067
N 6.17176 5.55341 5.39618
8
 Atoms. Timestep: 2080
B 5.82201 6.52499 6.84112
H 6.6144 4.7121 5.77768
H 6.82963 6.03593 4.8331
H 5.3103 5.32208 4.9447
H 5.16456 5.74089 7.59291
H 5.183 7.51779 6.43581
H 6.9556 6.63352 7.30883
N 6.1332 5.59777 5.44159
8
 Atoms. Timestep: 2100
B 5.86565 6.4523 6.75661
H 6.54349 4.71939 5.83526
H 6.71935 6.09856 4.84464
H 5.30569 5.39717 4.96348
H 5.21188 5.75202 7.49529
H 5.25202 7.45522 6.39569
H 6.96033 6.75738 7.12773
N 6.10416 5.63832 5.52328
8
 Atoms. Timestep: 2120
B 5.87171 6.49497 6.7915
H 6.57721 4.65222 5.62527
H 6.71917 6.1142 4.86167
H 5.19228 5.43491 5.09106
H 5.28303 5.82494 7.5699
H 5.25661 7.45826 6.44274
H 6.96713 6.87386 7.20439
N 6.09929 5.59264 5.48687
8
 Atoms. Timestep: 2140
B 5.87826 6.58698 6.905
H 6.55075 4.57819 5.54079
H 6.57355 6.05561 4.6613
H 5.19405 5.38845 5.01846
H 5.29295 5.84802 7.72725
H 5.15947 7.43121 6.38466
H 7.05328 6.83372 7.27051
N 6.10648 5.5376 5.41303
8
 Atoms. Timestep: 2160
B 5.89874 6.60979 6.95766
H 6.61995 4.61538 5.56522
H 6.61865 5.95941 4.6187
H 5.16745 5.24752 5.07333
H 5.28286 5.83311 7.71954
H 5.21704 7.53323 6.46885
H 7.03732 6.94403 7.17309
N 6.08217 5.52019 5.37128
8
 Atoms. Timestep: 2180
B 5.91982 6.59443 6.89709
H 6.63719 4.70253 5.74854
H 6.48982 6.027 4.61911
H 5.17318 5.21115 5.06465
H 5.43152 5.82562 7.65835
H 5.25206 7.56107 6.62253
H 7.03452 6.87239 7.14498
N 6.06055 5.52724 5.4009
8
 Atoms. Timestep: 2200
B 5.94698 6.52827 6.77257
H 6.69185 4.78565 5.7311
H 6.50585 6.02551 4.69449
H 5.17674 5.14917 5.19198
H 5.52118 5.79522 7.63068
H 5.22191 7.45839 6.56465
H 7.15659 6.71525 7.04064
N 6.02132 5.59761 5.49729
8
 Atoms. Timestep: 2220
B 5.98066 6.47464 6.73994
H 6.6709 4.78012 5.72883
H 6.30184 6.13736 4.69457
H 5.10088 5.25298 5.29854
H 5.48025 5.80808 7.69342
H 5.29177 7.45651 6.41239
H 7.18159 6.89088 6.87807
N 6.01297 5.61064 5.53301
8
 Atoms. Timestep: 2240
B 6.01459 6.57839 6.84727
H 6.63864 4.6605 5.39948
H 6.26345 6.11826 4.65499
H 5.04877 5.21502 5.37892
H 5.57365 5.90917 7.78115
H 5.25703 7.46994 6.44732
H 7.11792 6.96886 6.99293
N 5.99593 5.52947 5.45387
8
 Atoms. Timestep: 2260
B 6.04378 6.66639 6.92668
H 6.61491 4.60123 5.31538
H 6.10031 6.0399 4.54327
H 5.03496 5.1538 5.28497
H 5.66782 5.97662 7.80215
H 5.20122 7.4417 6.57051
H 7.17538 6.9685 7.04917
N 5.9809 5.47302 5.39898
8
 Atoms. Timestep: 2280
B 6.05896 6.66891 6.94906
H 6.67975 4.68388 5.46587
H 6.13966 5.98891 4.51121
H 5.03963 5.05133 5.40613
H 5.71694 5.88415 7.81037
H 5.27741 7.53007 6.59054
H 7.27031 7.05176 6.84752
N 5.94568 5.47047 5.37699
8
 Atoms. Timestep: 2300
B 6.07669 6.61835 6.85653
H 6.72302 4.81759 5.63458
H 6.0461 5.91543 4.49143
H 5.05694 5.01082 5.38957
H 5.84452 5.85448 7.82584
H 5.27567 7.53692 6.68949
H 7.29242 6.96513 6.76066
N 5.92379 5.51589 5.43695
8
 Atoms. Timestep: 2320
B 6.09597 6.53949 6.70732
H 6.71267 4.85759 5.62645
H 6.05652 6.01549 4.61461
H 5.07647 5.01584 5.52793
H 5.96308 5.85262 7.70583
H 5.26336 7.4104 6.72709
H 7.21223 6.8555 6.68468
N 5.90566 5.58336 5.54527
8
 Atoms. Timestep: 2340
B 6.12595 6.53474 6.72498
H 6.65669 4.79144 5.50863
H 5.89418 6.12031 4.67963
H 4.97502 5.18175 5.63536
H 6.01446 5.83097 7.68644
H 5.2653 7.39744 6.56983
H 7.23326 7.02686 6.5136
N 5.90006 5.56265 5.55258
8
 Atoms. Timestep: 2360
B 6.18122 6.62 6.83191
H 6.47854 4.62563 5.27495
H 5.83262 6.00158 4.56845
H 4.96003 5.09101 5.63167
H 6.13066 6.00802 7.9043
H 5.22083 7.36469 6.62526
H 7.29878 7.19725 6.53824
N 5.86581 5.5012 5.47371
8
 Atoms. Timestep: 2380
B 6.22186 6.69522 6.86515
H 6.53902 4.64356 5.29954
H 5.76422 5.99881 4.56292
H 4.9021 5.10529 5.60464
H 6.27779 6.02886 7.90526
H 5.21236 7.35677 6.82584
H 7.30407 7.17626 6.60174
N 5.82889 5.44165 5.4297
8
 Atoms. Timestep: 2400
B 6.24333 6.6958 6.85853
H 6.55339 4.68662 5.41072
H 5.80218 5.97687 4.5637
H 4.93154 4.99101 5.62242
H 6.35562 5.84634 7.69508
H 5.2849 7.43366 6.84937
H 7.19286 7.16999 6.40449
N 5.80368 5.45585 5.45296
8
 Atoms. Timestep: 2420
B 6.23373 6.60696 6.7565
H 6.60866 4.81332 5.51726
H 5.75825 5.8653 4.55059
H 4.94778 4.99098 5.60957
H 6.46952 5.87548 7.70998
H 5.30235 7.40191 6.95196
H 7.23539 7.15463 6.24501
N 5.7967 5.52459 5.52892
8
 Atoms. Timestep: 2440
B 6.2173 6.52968 6.64
H 6.59263 4.84182 5.5782
H 5.7302 6.03609 4.67626
H 4.95825 5.08929 5.84766
H 6.58422 5.95049 7.6633
H 5.29239 7.2564 6.95684
H 7.28556 7.12238 6.23594
N 5.80071 5.57029 5.59209
8
 Atoms. Timestep: 2460
B 6.28307 6.60325 6.70111
H 6.43134 4.71841 5.27389
H 5.55278 6.02549 4.71184
H 4.91374 5.13697 5.88304
H 6.57702 5.81618 7.60076
H 5.28357 7.27606 6.80228
H 7.14144 7.21503 6.13929
N 5.78878 5.52127 5.58402
8
 Atoms. Timestep: 2480
B 6.35456 6.66945 6.75894
H 6.36052 4.66049 5.18074
H 5.40197 5.97149 4.69188
H 4.94349 4.9918 5.91333
H 6.64572 6.04998 7.76851
H 5.31886 7.32099 6.91817
H 7.19955 7.29282 6.23419
N 5.73576 5.4631 5.51829
8
 Atoms. Timestep: 2500
B 6.37149 6.69436 6.76865
H 6.5003 4.81953 5.19212
H 5.31828 5.95064 4.70219
H 4.97369 4.95258 5.98541
H 6.76331 6.1063 7.75459
H 5.35715 7.35276 7.00446
H 7.35858 7.22996 6.20296
N 5.69404 5.43501 5.50116
8
 Atoms. Timestep: 2520
B 6.36972 6.67116 6.7348
H 6.49898 4.87567 5.20514
H 5.23849 5.88518 4.7415
H 5.05397 4.80406 5.92582
H 6.7152 5.84377 7.55319
H 5.45026 7.42562 6.91626
H 7.25029 7.15759 5.96603
N 5.69999 5.4829 5.5654
8
 Atoms. Timestep: 2540
B 6.3364 6.57757 6.60523
H 6.55317 5.0464 5.21106
H 5.22431 5.94956 4.83551
H 5.11887 4.85009 6.05212
H 6.75367 5.90363 7.56798
H 5.54641 7.39602 7.01091
H 7.221 7.11212 6.00952
N 5.71068 5.5361 5.63827
8
 Atoms. Timestep: 2560
B 6.35699 6.56349 6.58643
H 6.47006 4.96685 5.18077
H 5.11293 6.01551 4.96133
H 5.13207 4.93728 6.18279
H 6.88048 6.0177 7.53489
H 5.43439 7.2931 6.99889
H 7.25346 7.08926 5.99381
N 5.70437 5.54254 5.64096
8
 Atoms. Timestep: 2580
B 6.44373 6.65635 6.67188
H 6.18995 4.7999 4.98707
H 5.06361 5.94668 4.93562
H 5.06181 4.90624 6.14883
H 6.91062 5.90473 7.49107
H 5.42428 7.29293 6.9088
H 7.17179 7.29246 5.85129
N 5.6704 5.48353 5.61288
8
 Atoms. Timestep: 2600
B 6.48157 6.70034 6.66767
H 6.25599 4.78634 5.04262
H 5.04318 6.00719 4.98204
H 5.01536 4.90495 6.16431
H 7.04353 6.03423 7.54398