ITEM: TIMESTEP
0
ITEM: NUMBER OF ATOMS
8
ITEM: BOX BOUNDS xy xz yz pp pp pp
0.0000000000000000e+00 1.2000000000000000e+01 0.0000000000000000e+00
0.0000000000000000e+00 1.2000000000000000e+01 0.0000000000000000e+00
0.0000000000000000e+00 1.2000000000000000e+01 0.0000000000000000e+00
ITEM: ATOMS id type x y z
1 1 6 6 5.293
5 2 4.994 6.581 4.894
6 2 6 4.838 4.894
7 2 7.006 6.581 4.894
2 2 6 6.947 7.109
3 2 6.82 5.527 7.109
4 2 5.18 5.527 7.109
8 3 6 6 6.699
ITEM: TIMESTEP
100
ITEM: NUMBER OF ATOMS
8
ITEM: BOX BOUNDS xy xz yz pp pp pp
0.0000000000000000e+00 1.2000000000000000e+01 0.0000000000000000e+00
0.0000000000000000e+00 1.2000000000000000e+01 0.0000000000000000e+00
0.0000000000000000e+00 1.2000000000000000e+01 0.0000000000000000e+00
ITEM: ATOMS id type x y z
1 1 5.83447 5.97292 5.07432
5 2 4.92355 6.74413 4.80102
6 2 5.59671 4.78061 4.94859
7 2 6.89893 6.23072 4.66565
2 2 6.50342 6.96901 7.12708
3 2 6.86115 5.34998 7.12876
4 2 5.32745 5.83429 7.48251
8 3 6.11975 6.02748 6.85737
ITEM: TIMESTEP
200
ITEM: NUMBER OF ATOMS
8
ITEM: BOX BOUNDS xy xz yz pp pp pp
0.0000000000000000e+00 1.2000000000000000e+01 0.0000000000000000e+00
0.0000000000000000e+00 1.2000000000000000e+01 0.0000000000000000e+00
0.0000000000000000e+00 1.2000000000000000e+01 0.0000000000000000e+00
ITEM: ATOMS id type x y z
1 1 5.67513 5.91031 5.04298
5 2 4.99565 6.92494 4.98119
6 2 5.05564 4.83217 5.08237
7 2 6.82864 6.00431 4.56871
2 2 6.75079 6.97766 7.08431
3 2 6.90475 5.27003 6.99509
4 2 5.47517 5.98447 7.54368
8 3 6.24986 6.06972 6.87427
ITEM: TIMESTEP
300
ITEM: NUMBER OF ATOMS
8
ITEM: BOX BOUNDS xy xz yz pp pp pp
0.0000000000000000e+00 1.2000000000000000e+01 0.0000000000000000e+00
0.0000000000000000e+00 1.2000000000000000e+01 0.0000000000000000e+00
0.0000000000000000e+00 1.2000000000000000e+01 0.0000000000000000e+00
ITEM: ATOMS id type x y z
1 1 5.54618 5.90956 5.10087
5 2 4.97764 6.9238 4.92794
6 2 4.91104 4.92569 5.26116
7 2 6.52346 5.74787 4.3852
2 2 7.01756 6.88372 6.74134
3 2 6.89488 5.21744 7.07495
4 2 5.63008 6.23444 7.55149
8 3 6.35332 6.07463 6.85199
ITEM: TIMESTEP
400
ITEM: NUMBER OF ATOMS
8
ITEM: BOX BOUNDS xy xz yz pp pp pp
0.0000000000000000e+00 1.2000000000000000e+01 0.0000000000000000e+00
0.0000000000000000e+00 1.2000000000000000e+01 0.0000000000000000e+00
0.0000000000000000e+00 1.2000000000000000e+01 0.0000000000000000e+00
ITEM: ATOMS id type x y z
1 1 5.44087 5.88089 5.18985
5 2 5.00056 7.04985 4.99951
6 2 4.5702 5.01119 5.35228
7 2 6.23865 5.53068 4.3481
2 2 7.20213 6.80362 6.62946
3 2 6.83112 5.16454 7.022
4 2 5.84783 6.4312 7.5223
8 3 6.45344 6.0926 6.78824
ITEM: TIMESTEP
500
ITEM: NUMBER OF ATOMS
8
ITEM: BOX BOUNDS xy xz yz pp pp pp
0.0000000000000000e+00 1.2000000000000000e+01 0.0000000000000000e+00
0.0000000000000000e+00 1.2000000000000000e+01 0.0000000000000000e+00
0.0000000000000000e+00 1.2000000000000000e+01 0.0000000000000000e+00
ITEM: ATOMS id type x y z
1 1 5.33054 5.88293 5.26332
5 2 5.01942 7.04305 4.99197
6 2 4.41005 5.32882 5.86852
7 2 6.02239 5.30156 4.45462
2 2 7.32281 6.67057 6.37544
3 2 6.97079 5.22705 7.0597
4 2 6.09959 6.5528 7.48231
8 3 6.52751 6.08154 6.70593
ITEM: TIMESTEP
600
ITEM: NUMBER OF ATOMS
8
ITEM: BOX BOUNDS xy xz yz pp pp pp
0.0000000000000000e+00 1.2000000000000000e+01 0.0000000000000000e+00
0.0000000000000000e+00 1.2000000000000000e+01 0.0000000000000000e+00
0.0000000000000000e+00 1.2000000000000000e+01 0.0000000000000000e+00
ITEM: ATOMS id type x y z
1 1 5.21815 5.88605 5.41555
5 2 5.11905 7.00359 5.09706
6 2 4.33389 5.48234 6.09229
7 2 5.62405 5.12043 4.56783
2 2 7.53669 6.39121 6.20097
3 2 6.85222 5.26889 7.14653
4 2 6.40222 6.75214 7.29595
8 3 6.61256 6.08665 6.57649
ITEM: TIMESTEP
700
ITEM: NUMBER OF ATOMS
8
ITEM: BOX BOUNDS xy xz yz pp pp pp
0.0000000000000000e+00 1.2000000000000000e+01 0.0000000000000000e+00
0.0000000000000000e+00 1.2000000000000000e+01 0.0000000000000000e+00
0.0000000000000000e+00 1.2000000000000000e+01 0.0000000000000000e+00
ITEM: ATOMS id type x y z
1 1 5.21826 5.93084 5.62157
5 2 5.16283 7.02035 4.88453
7 2 5.17898 4.82923 4.97081
2 2 7.47436 6.22917 5.81986
8 3 6.62462 6.04968 6.42456
3 2 6.90039 5.29707 7.07539
4 2 6.59065 6.91574 6.94262
6 2 4.3909 5.76083 6.60943
ITEM: TIMESTEP
800
ITEM: NUMBER OF ATOMS
8
ITEM: BOX BOUNDS xy xz yz pp pp pp
0.0000000000000000e+00 1.2000000000000000e+01 0.0000000000000000e+00
0.0000000000000000e+00 1.2000000000000000e+01 0.0000000000000000e+00
0.0000000000000000e+00 1.2000000000000000e+01 0.0000000000000000e+00
ITEM: ATOMS id type x y z
1 1 5.20881 5.94126 5.77845
5 2 5.16697 6.77491 4.95469
7 2 5.08144 4.87626 5.36632
2 2 7.35617 5.93469 5.5305
8 3 6.63367 6.03896 6.29952
3 2 6.83065 5.33004 7.03859
4 2 6.69028 6.94809 6.75175
6 2 4.54785 6.22595 6.71696
ITEM: TIMESTEP
900
ITEM: NUMBER OF ATOMS
8
ITEM: BOX BOUNDS xy xz yz pp pp pp
0.0000000000000000e+00 1.2000000000000000e+01 0.0000000000000000e+00
0.0000000000000000e+00 1.2000000000000000e+01 0.0000000000000000e+00
0.0000000000000000e+00 1.2000000000000000e+01 0.0000000000000000e+00
ITEM: ATOMS id type x y z
1 1 5.19957 5.96654 5.88118
5 2 4.96718 6.7552 4.94045
7 2 4.88363 4.78058 5.47558
2 2 7.24462 5.64061 5.42432
8 3 6.66216 6.02337 6.23165
3 2 6.8281 5.49319 7.11525
4 2 6.90098 7.01309 6.36491
6 2 4.54992 6.35258 6.87903
ITEM: TIMESTEP
1000
ITEM: NUMBER OF ATOMS
8
ITEM: BOX BOUNDS xy xz yz pp pp pp
0.0000000000000000e+00 1.2000000000000000e+01 0.0000000000000000e+00
0.0000000000000000e+00 1.2000000000000000e+01 0.0000000000000000e+00
0.0000000000000000e+00 1.2000000000000000e+01 0.0000000000000000e+00
ITEM: ATOMS id type x y z
1 1 5.18709 5.99472 5.97261
5 2 4.89356 6.51203 4.87918
7 2 4.73532 4.86363 5.9899
2 2 7.15732 5.58456 5.30603
8 3 6.67652 6.01039 6.15188
3 2 6.90789 5.42698 6.98081
4 2 6.98213 6.97409 6.2667
6 2 4.632 6.55119 6.90621
ITEM: TIMESTEP
1100
ITEM: NUMBER OF ATOMS
8
ITEM: BOX BOUNDS xy xz yz pp pp pp
0.0000000000000000e+00 1.2000000000000000e+01 0.0000000000000000e+00
0.0000000000000000e+00 1.2000000000000000e+01 0.0000000000000000e+00
0.0000000000000000e+00 1.2000000000000000e+01 0.0000000000000000e+00
ITEM: ATOMS id type x y z
1 1 5.15639 6.02215 6.06744
5 2 4.84105 6.47539 5.01386
7 2 4.87535 4.88043 6.25024
2 2 6.99423 5.30509 5.3318
8 3 6.6703 5.98754 6.06559
3 2 7.02195 5.66682 6.97371
4 2 7.11784 6.87728 5.93261
6 2 4.87638 6.73132 7.01054
ITEM: TIMESTEP
1200
ITEM: NUMBER OF ATOMS
8
ITEM: BOX BOUNDS xy xz yz pp pp pp
0.0000000000000000e+00 1.2000000000000000e+01 0.0000000000000000e+00
0.0000000000000000e+00 1.2000000000000000e+01 0.0000000000000000e+00
0.0000000000000000e+00 1.2000000000000000e+01 0.0000000000000000e+00
ITEM: ATOMS id type x y z
1 1 5.08435 6.07532 6.22198
5 2 4.59915 6.32611 5.09578
7 2 4.89758 4.82982 6.6267
2 2 6.93579 5.12327 5.35344
8 3 6.71727 5.96244 5.95945
3 2 7.21891 5.71469 6.80884
4 2 7.24498 6.64156 5.46884
6 2 4.95084 7.07789 6.97611
ITEM: TIMESTEP
1300
ITEM: NUMBER OF ATOMS
8
ITEM: BOX BOUNDS xy xz yz pp pp pp
0.0000000000000000e+00 1.2000000000000000e+01 0.0000000000000000e+00
0.0000000000000000e+00 1.2000000000000000e+01 0.0000000000000000e+00
0.0000000000000000e+00 1.2000000000000000e+01 0.0000000000000000e+00
ITEM: ATOMS id type x y z
2 2 6.79829 4.93945 5.31173
5 2 4.35465 5.998 5.43259
8 3 6.78635 5.88587 5.78264
4 2 7.28446 6.51563 5.18751
6 2 4.95536 7.23407 6.92513
3 2 7.44914 5.80503 6.56393
1 1 5.00125 6.17084 6.42497
7 2 4.93571 5.26158 7.19186
ITEM: TIMESTEP
1400
ITEM: NUMBER OF ATOMS
8
ITEM: BOX BOUNDS xy xz yz pp pp pp
0.0000000000000000e+00 1.2000000000000000e+01 0.0000000000000000e+00
0.0000000000000000e+00 1.2000000000000000e+01 0.0000000000000000e+00
0.0000000000000000e+00 1.2000000000000000e+01 0.0000000000000000e+00
ITEM: ATOMS id type x y z
2 2 6.70627 4.79994 5.45694
5 2 4.26611 5.95966 5.6579
8 3 6.72581 5.83496 5.6961
4 2 6.90814 6.35429 4.83878
6 2 5.21325 7.37849 6.9499
3 2 7.51905 5.98936 6.34227
1 1 5.08305 6.22363 6.5319
7 2 5.12888 5.41457 7.42371
ITEM: TIMESTEP
1500
ITEM: NUMBER OF ATOMS
8
ITEM: BOX BOUNDS xy xz yz pp pp pp
0.0000000000000000e+00 1.2000000000000000e+01 0.0000000000000000e+00
0.0000000000000000e+00 1.2000000000000000e+01 0.0000000000000000e+00
0.0000000000000000e+00 1.2000000000000000e+01 0.0000000000000000e+00
ITEM: ATOMS id type x y z
2 2 6.66859 4.73941 5.48104
5 2 4.21451 5.93085 5.90868
8 3 6.68542 5.79453 5.62146
4 2 6.68294 6.23956 4.70809
6 2 5.24704 7.49337 6.75732
3 2 7.51574 6.02355 6.19583
1 1 5.14904 6.26813 6.62466
7 2 5.26563 5.55499 7.66169
ITEM: TIMESTEP
1600
ITEM: NUMBER OF ATOMS
8
ITEM: BOX BOUNDS xy xz yz pp pp pp
0.0000000000000000e+00 1.2000000000000000e+01 0.0000000000000000e+00
0.0000000000000000e+00 1.2000000000000000e+01 0.0000000000000000e+00
0.0000000000000000e+00 1.2000000000000000e+01 0.0000000000000000e+00
ITEM: ATOMS id type x y z
2 2 6.60207 4.68013 5.47344
5 2 4.22897 5.87424 6.2282
8 3 6.62925 5.73704 5.5494
4 2 6.50313 6.2115 4.67177
6 2 5.28166 7.49115 6.63893
3 2 7.52741 6.09227 5.90325
1 1 5.21575 6.3212 6.71981
7 2 5.5172 5.8641 7.77831
ITEM: TIMESTEP
1700
ITEM: NUMBER OF ATOMS
8
ITEM: BOX BOUNDS xy xz yz pp pp pp
0.0000000000000000e+00 1.2000000000000000e+01 0.0000000000000000e+00
0.0000000000000000e+00 1.2000000000000000e+01 0.0000000000000000e+00
0.0000000000000000e+00 1.2000000000000000e+01 0.0000000000000000e+00
ITEM: ATOMS id type x y z
2 2 6.71432 4.65227 5.51143
5 2 4.2781 5.81425 6.40534
8 3 6.52842 5.70048 5.48991
4 2 6.04665 5.86806 4.63504
6 2 5.52653 7.59952 6.53762
3 2 7.43663 6.15662 5.57628
1 1 5.33162 6.37114 6.81064
7 2 5.81835 6.09522 7.88006
ITEM: TIMESTEP
1800
ITEM: NUMBER OF ATOMS
8
ITEM: BOX BOUNDS xy xz yz pp pp pp
0.0000000000000000e+00 1.2000000000000000e+01 0.0000000000000000e+00
0.0000000000000000e+00 1.2000000000000000e+01 0.0000000000000000e+00
0.0000000000000000e+00 1.2000000000000000e+01 0.0000000000000000e+00
ITEM: ATOMS id type x y z
2 2 6.59519 4.63101 5.54557
4 2 5.78307 5.82802 4.72312
8 3 6.36564 5.67468 5.52012
3 2 7.2198 6.17732 5.24836
6 2 5.41279 7.5103 6.28183
7 2 6.31166 6.28102 7.7382
1 1 5.54017 6.40537 6.79021
5 2 4.52475 5.74977 6.80629
ITEM: TIMESTEP
1900
ITEM: NUMBER OF ATOMS
8
ITEM: BOX BOUNDS xy xz yz pp pp pp
0.0000000000000000e+00 1.2000000000000000e+01 0.0000000000000000e+00
0.0000000000000000e+00 1.2000000000000000e+01 0.0000000000000000e+00
0.0000000000000000e+00 1.2000000000000000e+01 0.0000000000000000e+00
ITEM: ATOMS id type x y z
2 2 6.50981 4.66615 5.72086
4 2 5.56084 5.6563 4.79501
8 3 6.23727 5.68041 5.53815
3 2 7.06977 6.14565 5.15762
6 2 5.27431 7.43697 6.31708
7 2 6.58458 6.48364 7.58865
1 1 5.70763 6.39933 6.72233
5 2 4.83654 5.77378 7.24491
ITEM: TIMESTEP
2000
ITEM: NUMBER OF ATOMS
8
ITEM: BOX BOUNDS xy xz yz pp pp pp
0.0000000000000000e+00 1.2000000000000000e+01 0.0000000000000000e+00
0.0000000000000000e+00 1.2000000000000000e+01 0.0000000000000000e+00
0.0000000000000000e+00 1.2000000000000000e+01 0.0000000000000000e+00
ITEM: ATOMS id type x y z
2 2 6.69195 4.75699 5.75276
4 2 5.38042 5.38129 4.96197
8 3 6.16848 5.65168 5.5244
3 2 6.83141 6.17796 4.93948
6 2 5.39811 7.57369 6.44424
7 2 6.78548 6.60872 7.43049
1 1 5.78436 6.42385 6.73367
5 2 4.88287 5.80123 7.36531
ITEM: TIMESTEP
2100
ITEM: NUMBER OF ATOMS
8
ITEM: BOX BOUNDS xy xz yz pp pp pp
0.0000000000000000e+00 1.2000000000000000e+01 0.0000000000000000e+00
0.0000000000000000e+00 1.2000000000000000e+01 0.0000000000000000e+00
0.0000000000000000e+00 1.2000000000000000e+01 0.0000000000000000e+00
ITEM: ATOMS id type x y z
2 2 6.54349 4.71939 5.83526
4 2 5.30569 5.39717 4.96348
8 3 6.10416 5.63832 5.52328
3 2 6.71935 6.09856 4.84464
6 2 5.25202 7.45522 6.39569
7 2 6.96033 6.75738 7.12773
1 1 5.86565 6.4523 6.75661
5 2 5.21188 5.75202 7.49529
ITEM: TIMESTEP
2200
ITEM: NUMBER OF ATOMS
8
ITEM: BOX BOUNDS xy xz yz pp pp pp
0.0000000000000000e+00 1.2000000000000000e+01 0.0000000000000000e+00
0.0000000000000000e+00 1.2000000000000000e+01 0.0000000000000000e+00
0.0000000000000000e+00 1.2000000000000000e+01 0.0000000000000000e+00
ITEM: ATOMS id type x y z
2 2 6.69185 4.78565 5.7311
4 2 5.17674 5.14917 5.19198
8 3 6.02132 5.59761 5.49729
3 2 6.50585 6.02551 4.69449
6 2 5.22191 7.45839 6.56465
7 2 7.15659 6.71525 7.04064
1 1 5.94698 6.52827 6.77257
5 2 5.52118 5.79522 7.63068
ITEM: TIMESTEP
2300
ITEM: NUMBER OF ATOMS
8
ITEM: BOX BOUNDS xy xz yz pp pp pp
0.0000000000000000e+00 1.2000000000000000e+01 0.0000000000000000e+00
0.0000000000000000e+00 1.2000000000000000e+01 0.0000000000000000e+00
0.0000000000000000e+00 1.2000000000000000e+01 0.0000000000000000e+00
ITEM: ATOMS id type x y z
2 2 6.72302 4.81759 5.63458
4 2 5.05694 5.01082 5.38957
8 3 5.92379 5.51589 5.43695
3 2 6.0461 5.91543 4.49143
6 2 5.27567 7.53692 6.68949
7 2 7.29242 6.96513 6.76066
1 1 6.07669 6.61835 6.85653
5 2 5.84452 5.85448 7.82584
ITEM: TIMESTEP
2400
ITEM: NUMBER OF ATOMS
8
ITEM: BOX BOUNDS xy xz yz pp pp pp
0.0000000000000000e+00 1.2000000000000000e+01 0.0000000000000000e+00
0.0000000000000000e+00 1.2000000000000000e+01 0.0000000000000000e+00
0.0000000000000000e+00 1.2000000000000000e+01 0.0000000000000000e+00
ITEM: ATOMS id type x y z
2 2 6.55339 4.68662 5.41072
4 2 4.93154 4.99101 5.62242
8 3 5.80368 5.45585 5.45296
3 2 5.80218 5.97687 4.5637
6 2 5.2849 7.43366 6.84937
7 2 7.19286 7.16999 6.40449
1 1 6.24333 6.6958 6.85853
5 2 6.35562 5.84634 7.69508
ITEM: TIMESTEP
2500
ITEM: NUMBER OF ATOMS
8
ITEM: BOX BOUNDS xy xz yz pp pp pp
0.0000000000000000e+00 1.2000000000000000e+01 0.0000000000000000e+00
0.0000000000000000e+00 1.2000000000000000e+01 0.0000000000000000e+00
0.0000000000000000e+00 1.2000000000000000e+01 0.0000000000000000e+00
ITEM: ATOMS id type x y z
2 2 6.5003 4.81953 5.19212
4 2 4.97369 4.95258 5.98541
8 3 5.69404 5.43501 5.50116
3 2 5.31828 5.95064 4.70219
6 2 5.35715 7.35276 7.00446
7 2 7.35858 7.22996 6.20296
1 1 6.37149 6.69436 6.76865
5 2 6.76331 6.1063 7.75459
ITEM: TIMESTEP
2600
ITEM: NUMBER OF ATOMS
8
ITEM: BOX BOUNDS xy xz yz pp pp pp
0.0000000000000000e+00 1.2000000000000000e+01 0.0000000000000000e+00
0.0000000000000000e+00 1.2000000000000000e+01 0.0000000000000000e+00
0.0000000000000000e+00 1.2000000000000000e+01 0.0000000000000000e+00
ITEM: ATOMS id type x y z
2 2 6.25599 4.78634 5.04262
3 2 5.04318 6.00719 4.98204
8 3 5.61805 5.42702 5.5797
6 2 5.56602 7.32444 7.15798
7 2 7.22231 7.4019 5.94182
1 1 6.48157 6.70034 6.66767
5 2 7.04353 6.03423 7.54398
4 2 5.01536 4.90495 6.16431
ITEM: TIMESTEP
2700
ITEM: NUMBER OF ATOMS
8
ITEM: BOX BOUNDS xy xz yz pp pp pp
0.0000000000000000e+00 1.2000000000000000e+01 0.0000000000000000e+00
0.0000000000000000e+00 1.2000000000000000e+01 0.0000000000000000e+00
0.0000000000000000e+00 1.2000000000000000e+01 0.0000000000000000e+00
ITEM: ATOMS id type x y z
2 2 6.04629 4.75646 5.04113
3 2 4.8594 5.90585 5.07253
8 3 5.54225 5.44937 5.66411
6 2 5.67123 7.19286 7.18916
7 2 6.88801 7.39869 5.71926
1 1 6.5965 6.69834 6.58545
5 2 7.40033 5.9996 7.1477
4 2 5.10115 4.91431 6.36923
ITEM: TIMESTEP
2800
ITEM: NUMBER OF ATOMS
8
ITEM: BOX BOUNDS xy xz yz pp pp pp
0.0000000000000000e+00 1.2000000000000000e+01 0.0000000000000000e+00
0.0000000000000000e+00 1.2000000000000000e+01 0.0000000000000000e+00
0.0000000000000000e+00 1.2000000000000000e+01 0.0000000000000000e+00
ITEM: ATOMS id type x y z
2 2 5.73429 4.89267 4.88011
3 2 4.62468 5.94235 5.54033
8 3 5.50433 5.45845 5.76238
7 2 7.0309 7.42477 5.50984
6 2 5.89435 7.13128 7.34938
4 2 5.1694 4.79216 6.43511
1 1 6.64016 6.68492 6.45417
5 2 7.572 6.00228 6.86634
ITEM: TIMESTEP
2900
ITEM: NUMBER OF ATOMS
8
ITEM: BOX BOUNDS xy xz yz pp pp pp
0.0000000000000000e+00 1.2000000000000000e+01 0.0000000000000000e+00
0.0000000000000000e+00 1.2000000000000000e+01 0.0000000000000000e+00
0.0000000000000000e+00 1.2000000000000000e+01 0.0000000000000000e+00
ITEM: ATOMS id type x y z
2 2 5.51632 4.92942 4.9461
3 2 4.55633 5.99531 5.77255
8 3 5.47197 5.51863 5.86259
7 2 6.68573 7.40044 5.37505
6 2 6.25853 7.00904 7.37887
4 2 5.33957 4.78271 6.54811
1 1 6.67615 6.60746 6.32984
5 2 7.73344 6.06272 6.50024
ITEM: TIMESTEP
3000
ITEM: NUMBER OF ATOMS
8
ITEM: BOX BOUNDS xy xz yz pp pp pp
0.0000000000000000e+00 1.2000000000000000e+01 0.0000000000000000e+00
0.0000000000000000e+00 1.2000000000000000e+01 0.0000000000000000e+00
0.0000000000000000e+00 1.2000000000000000e+01 0.0000000000000000e+00
ITEM: ATOMS id type x y z
2 2 5.47909 5.05273 5.00187
3 2 4.5808 6.08927 6.02454
8 3 5.48058 5.56199 5.97119
7 2 6.43179 7.49066 5.50843
5 2 7.63279 5.81848 5.90981
6 2 6.53171 6.88349 7.36674
4 2 5.37788 4.85238 6.69394
1 1 6.67017 6.55057 6.1905
ITEM: TIMESTEP
3100
ITEM: NUMBER OF ATOMS
8
ITEM: BOX BOUNDS xy xz yz pp pp pp
0.0000000000000000e+00 1.2000000000000000e+01 0.0000000000000000e+00
0.0000000000000000e+00 1.2000000000000000e+01 0.0000000000000000e+00
0.0000000000000000e+00 1.2000000000000000e+01 0.0000000000000000e+00
ITEM: ATOMS id type x y z
2 2 5.16504 5.57981 5.03379
3 2 4.69419 5.98979 6.66317
8 3 5.45077 5.60801 6.08172
7 2 6.48796 7.36125 5.24834
5 2 7.64362 5.863 5.64978
6 2 6.89365 6.95641 7.20652
4 2 5.75925 4.7092 6.40471
1 1 6.65236 6.46568 6.07491
ITEM: TIMESTEP
3200
ITEM: NUMBER OF ATOMS
8
ITEM: BOX BOUNDS xy xz yz pp pp pp
0.0000000000000000e+00 1.2000000000000000e+01 0.0000000000000000e+00
0.0000000000000000e+00 1.2000000000000000e+01 0.0000000000000000e+00
0.0000000000000000e+00 1.2000000000000000e+01 0.0000000000000000e+00
ITEM: ATOMS id type x y z
2 2 5.04575 5.43895 5.21331
5 2 7.32116 5.84678 5.09142
7 2 6.36266 7.62128 5.50327
1 1 6.73555 6.48534 5.93397
6 2 7.45187 6.52719 6.90303
4 2 5.67001 4.72978 6.56663
3 2 4.72126 6.10321 6.77768
8 3 5.39167 5.60658 6.20122
ITEM: TIMESTEP
3300
ITEM: NUMBER OF ATOMS
8
ITEM: BOX BOUNDS xy xz yz pp pp pp
0.0000000000000000e+00 1.2000000000000000e+01 0.0000000000000000e+00
0.0000000000000000e+00 1.2000000000000000e+01 0.0000000000000000e+00
0.0000000000000000e+00 1.2000000000000000e+01 0.0000000000000000e+00
ITEM: ATOMS id type x y z
2 2 4.70085 5.65178 5.51529
5 2 7.0027 5.78127 4.78368
7 2 6.32794 7.57405 5.6267
1 1 6.7973 6.47736 5.76857
6 2 7.48415 6.32835 6.74246
4 2 5.57026 4.68437 6.5556
3 2 4.92356 6.05005 7.10404
8 3 5.38426 5.62683 6.30936
ITEM: TIMESTEP
3400
ITEM: NUMBER OF ATOMS
8
ITEM: BOX BOUNDS xy xz yz pp pp pp
0.0000000000000000e+00 1.2000000000000000e+01 0.0000000000000000e+00
0.0000000000000000e+00 1.2000000000000000e+01 0.0000000000000000e+00
0.0000000000000000e+00 1.2000000000000000e+01 0.0000000000000000e+00
ITEM: ATOMS id type x y z
2 2 4.46991 5.82509 5.8863
5 2 6.94704 5.84774 4.56356
7 2 6.41957 7.58713 5.48852
1 1 6.78418 6.43448 5.66981
6 2 7.71038 6.32032 6.5259
4 2 5.47932 4.65947 6.42596
3 2 5.21229 5.95944 7.3458
8 3 5.37802 5.65067 6.3921
ITEM: TIMESTEP
3500
ITEM: NUMBER OF ATOMS
8
ITEM: BOX BOUNDS xy xz yz pp pp pp
0.0000000000000000e+00 1.2000000000000000e+01 0.0000000000000000e+00
0.0000000000000000e+00 1.2000000000000000e+01 0.0000000000000000e+00
0.0000000000000000e+00 1.2000000000000000e+01 0.0000000000000000e+00
ITEM: ATOMS id type x y z
2 2 4.43447 5.79467 6.00805
5 2 6.69446 6.03241 4.44093
7 2 6.63371 7.5995 5.64241
1 1 6.78067 6.41066 5.54199
6 2 7.74072 5.97464 6.08778
4 2 5.45689 4.68308 6.67841
3 2 5.32223 6.09473 7.42044
8 3 5.37759 5.67049 6.48771
ITEM: TIMESTEP
3600
ITEM: NUMBER OF ATOMS
8
ITEM: BOX BOUNDS xy xz yz pp pp pp
0.0000000000000000e+00 1.2000000000000000e+01 0.0000000000000000e+00
0.0000000000000000e+00 1.2000000000000000e+01 0.0000000000000000e+00
0.0000000000000000e+00 1.2000000000000000e+01 0.0000000000000000e+00
ITEM: ATOMS id type x y z
2 2 4.37243 6.07807 6.51055
5 2 6.37824 5.87531 4.29464
7 2 6.60117 7.59368 5.66765
1 1 6.78628 6.3849 5.37631
6 2 7.71855 5.81559 5.92826
4 2 5.36475 4.6885 6.52237
3 2 5.63457 5.95583 7.57573
8 3 5.38846 5.70265 6.59972
ITEM: TIMESTEP
3700
ITEM: NUMBER OF ATOMS
8
ITEM: BOX BOUNDS xy xz yz pp pp pp
0.0000000000000000e+00 1.2000000000000000e+01 0.0000000000000000e+00
0.0000000000000000e+00 1.2000000000000000e+01 0.0000000000000000e+00
0.0000000000000000e+00 1.2000000000000000e+01 0.0000000000000000e+00
ITEM: ATOMS id type x y z
1 1 6.65649 6.30997 5.22249
5 2 5.99389 5.97246 4.25368
7 2 6.86848 7.45811 5.2999
6 2 7.61008 5.62003 5.56739
8 3 5.47498 5.76125 6.73591
4 2 5.04797 4.83757 6.63139
3 2 6.10932 5.68607 7.55492
2 2 4.63049 6.42161 6.94644
ITEM: TIMESTEP
3800
ITEM: NUMBER OF ATOMS
8
ITEM: BOX BOUNDS xy xz yz pp pp pp
0.0000000000000000e+00 1.2000000000000000e+01 0.0000000000000000e+00
0.0000000000000000e+00 1.2000000000000000e+01 0.0000000000000000e+00
0.0000000000000000e+00 1.2000000000000000e+01 0.0000000000000000e+00
ITEM: ATOMS id type x y z
1 1 6.43009 6.16746 5.23041
5 2 5.59063 6.30029 4.39429
7 2 7.05047 7.21247 5.44888
6 2 7.15607 5.20295 4.98883
8 3 5.64712 5.86834 6.74229
4 2 5.27629 4.92764 6.69161
3 2 6.34394 5.84471 7.50255
2 2 4.87796 6.54756 7.05276
ITEM: TIMESTEP
3900
ITEM: NUMBER OF ATOMS
8
ITEM: BOX BOUNDS xy xz yz pp pp pp
0.0000000000000000e+00 1.2000000000000000e+01 0.0000000000000000e+00
0.0000000000000000e+00 1.2000000000000000e+01 0.0000000000000000e+00
0.0000000000000000e+00 1.2000000000000000e+01 0.0000000000000000e+00
ITEM: ATOMS id type x y z
1 1 6.29591 6.11929 5.24739
5 2 5.21004 6.39925 4.67298
7 2 7.14435 7.08117 5.37079
6 2 6.60932 4.95219 5.03088
8 3 5.77592 5.90074 6.71774
4 2 5.14367 5.12924 6.78369
3 2 6.57483 5.78658 7.33505
2 2 5.25909 6.75385 7.04582
ITEM: TIMESTEP
4000
ITEM: NUMBER OF ATOMS
8
ITEM: BOX BOUNDS xy xz yz pp pp pp
0.0000000000000000e+00 1.2000000000000000e+01 0.0000000000000000e+00
0.0000000000000000e+00 1.2000000000000000e+01 0.0000000000000000e+00
0.0000000000000000e+00 1.2000000000000000e+01 0.0000000000000000e+00
ITEM: ATOMS id type x y z
1 1 6.16185 6.05392 5.23383
5 2 5.15034 6.42343 4.68515
7 2 6.98471 6.87986 5.16302
6 2 6.64386 5.04373 4.81002
8 3 5.86627 5.95077 6.75362
4 2 4.99828 5.47526 6.8497
3 2 6.55512 5.38452 7.2196
2 2 5.7919 6.90104 7.15587
ITEM: TIMESTEP
4100
ITEM: NUMBER OF ATOMS
8
ITEM: BOX BOUNDS xy xz yz pp pp pp
0.0000000000000000e+00 1.2000000000000000e+01 0.0000000000000000e+00
0.0000000000000000e+00 1.2000000000000000e+01 0.0000000000000000e+00
0.0000000000000000e+00 1.2000000000000000e+01 0.0000000000000000e+00
ITEM: ATOMS id type x y z
1 1 6.08086 6.04355 5.23741
5 2 5.1399 6.72632 4.80975
7 2 7.18799 6.54567 4.86449
6 2 6.0231 4.87011 4.76487
8 3 5.93022 5.95799 6.76061
4 2 5.14806 5.3959 7.04242
3 2 6.80171 5.6342 7.18193
2 2 5.80277 6.9466 7.08336
ITEM: TIMESTEP
4200
ITEM: NUMBER OF ATOMS
8
ITEM: BOX BOUNDS xy xz yz pp pp pp
0.0000000000000000e+00 1.2000000000000000e+01 0.0000000000000000e+00
0.0000000000000000e+00 1.2000000000000000e+01 0.0000000000000000e+00
0.0000000000000000e+00 1.2000000000000000e+01 0.0000000000000000e+00
ITEM: ATOMS id type x y z
1 1 5.97194 5.99043 5.22347
5 2 5.06177 6.74008 4.93795
7 2 7.08987 6.50558 4.98515
6 2 5.67186 4.8891 4.8506
8 3 6.02873 5.99285 6.74341
4 2 5.13149 5.68243 7.11868
3 2 6.78862 5.39842 7.13189
2 2 6.15716 6.98885 7.11394
ITEM: TIMESTEP
4300
ITEM: NUMBER OF ATOMS
8
ITEM: BOX BOUNDS xy xz yz pp pp pp
0.0000000000000000e+00 1.2000000000000000e+01 0.0000000000000000e+00
0.0000000000000000e+00 1.2000000000000000e+01 0.0000000000000000e+00
0.0000000000000000e+00 1.2000000000000000e+01 0.0000000000000000e+00
ITEM: ATOMS id type x y z
1 1 5.85109 5.97605 5.24259
5 2 4.95658 6.80173 5.06387
7 2 6.81439 6.25247 4.65844
6 2 5.58068 4.81545 4.96441
8 3 6.11333 6.01822 6.72889
4 2 5.31722 6.10295 7.369
3 2 6.5724 5.1744 7.15164
2 2 6.78031 6.85765 6.92764
ITEM: TIMESTEP
4400
ITEM: NUMBER OF ATOMS
8
ITEM: BOX BOUNDS xy xz yz pp pp pp
0.0000000000000000e+00 1.2000000000000000e+01 0.0000000000000000e+00
0.0000000000000000e+00 1.2000000000000000e+01 0.0000000000000000e+00
0.0000000000000000e+00 1.2000000000000000e+01 0.0000000000000000e+00
ITEM: ATOMS id type x y z
1 1 5.66263 5.95429 5.29745
5 2 5.27225 7.09234 4.92354
7 2 6.6281 5.5393 4.49966
6 2 4.83626 4.99139 5.1212
8 3 6.25293 6.03501 6.70223
4 2 5.56715 6.11127 7.46012
3 2 6.97349 5.3387 6.97287
2 2 6.82527 6.93152 6.93832
ITEM: TIMESTEP
4500
ITEM: NUMBER OF ATOMS
8
ITEM: BOX BOUNDS xy xz yz pp pp pp
0.0000000000000000e+00 1.2000000000000000e+01 0.0000000000000000e+00
0.0000000000000000e+00 1.2000000000000000e+01 0.0000000000000000e+00
0.0000000000000000e+00 1.2000000000000000e+01 0.0000000000000000e+00
ITEM: ATOMS id type x y z
1 1 5.5631 5.91523 5.31998
5 2 5.16235 6.97809 5.06482
7 2 6.32233 5.54109 4.49646
6 2 4.62238 5.28139 5.58075
8 3 6.34629 6.05954 6.6591
4 2 5.85544 6.379 7.49194
3 2 6.72699 5.18302 7.05685
2 2 7.18091 6.72033 6.58544
ITEM: TIMESTEP
4600
ITEM: NUMBER OF ATOMS
8
ITEM: BOX BOUNDS xy xz yz pp pp pp
0.0000000000000000e+00 1.2000000000000000e+01 0.0000000000000000e+00
0.0000000000000000e+00 1.2000000000000000e+01 0.0000000000000000e+00
0.0000000000000000e+00 1.2000000000000000e+01 0.0000000000000000e+00
ITEM: ATOMS id type x y z
1 1 5.45367 5.92205 5.38968
5 2 5.15309 7.16126 5.10398
7 2 6.18487 5.3734 4.55965
6 2 4.49381 5.20268 5.80968
8 3 6.42718 6.05669 6.60669
4 2 6.07048 6.70162 7.30006
3 2 6.62694 5.18323 7.11175
2 2 7.39066 6.42693 6.37205
ITEM: TIMESTEP
4700
ITEM: NUMBER OF ATOMS
8
ITEM: BOX BOUNDS xy xz yz pp pp pp
0.0000000000000000e+00 1.2000000000000000e+01 0.0000000000000000e+00
0.0000000000000000e+00 1.2000000000000000e+01 0.0000000000000000e+00
0.0000000000000000e+00 1.2000000000000000e+01 0.0000000000000000e+00
ITEM: ATOMS id type x y z
1 1 5.38558 5.93351 5.4561
5 2 5.41405 6.98864 4.91419
7 2 5.62155 4.95141 4.75014
6 2 4.39479 5.60264 6.09257
8 3 6.4934 6.06207 6.56496
4 2 6.16827 6.6054 7.33752
3 2 6.80466 5.14687 6.86268
2 2 7.32482 6.55521 6.16695
ITEM: TIMESTEP
4800
ITEM: NUMBER OF ATOMS
8
ITEM: BOX BOUNDS xy xz yz pp pp pp
0.0000000000000000e+00 1.2000000000000000e+01 0.0000000000000000e+00
0.0000000000000000e+00 1.2000000000000000e+01 0.0000000000000000e+00
0.0000000000000000e+00 1.2000000000000000e+01 0.0000000000000000e+00
ITEM: ATOMS id type x y z
1 1 5.30608 5.93046 5.57261
5 2 5.1514 6.96901 4.93044
7 2 5.55549 5.0533 4.76684
6 2 4.31009 5.80953 6.23367
8 3 6.5756 6.04661 6.48621
4 2 6.42794 6.86775 7.02561
3 2 6.5675 5.27865 7.13849
2 2 7.42346 6.12124 5.87317
ITEM: TIMESTEP
4900
ITEM: NUMBER OF ATOMS
8
ITEM: BOX BOUNDS xy xz yz pp pp pp
0.0000000000000000e+00 1.2000000000000000e+01 0.0000000000000000e+00
0.0000000000000000e+00 1.2000000000000000e+01 0.0000000000000000e+00
0.0000000000000000e+00 1.2000000000000000e+01 0.0000000000000000e+00
ITEM: ATOMS id type x y z
1 1 5.21861 5.92632 5.67126
5 2 5.1731 7.02237 4.90384
7 2 5.16859 4.87591 5.03387
2 2 7.38303 5.76592 5.67194
8 3 6.63881 6.04478 6.40365
4 2 6.70791 7.00844 6.66885
3 2 6.63458 5.33031 7.13096
6 2 4.42847 6.16689 6.6492
ITEM: TIMESTEP
5000
ITEM: NUMBER OF ATOMS
8
ITEM: BOX BOUNDS xy xz yz pp pp pp
0.0000000000000000e+00 1.2000000000000000e+01 0.0000000000000000e+00
0.0000000000000000e+00 1.2000000000000000e+01 0.0000000000000000e+00
0.0000000000000000e+00 1.2000000000000000e+01 0.0000000000000000e+00
ITEM: ATOMS id type x y z
1 1 5.09199 6.01232 5.82604
5 2 5.11777 6.42424 4.77795
7 2 4.79162 4.85764 6.02025
2 2 7.37768 5.77457 5.38278
8 3 6.72977 5.9965 6.25048
4 2 6.92975 6.93255 6.62179
3 2 6.84411 5.32367 7.03994
6 2 4.52888 6.60428 6.68878
ITEM: TIMESTEP
5100
ITEM: NUMBER OF ATOMS
8
ITEM: BOX BOUNDS xy xz yz pp pp pp
0.0000000000000000e+00 1.2000000000000000e+01 0.0000000000000000e+00
0.0000000000000000e+00 1.2000000000000000e+01 0.0000000000000000e+00
0.0000000000000000e+00 1.2000000000000000e+01 0.0000000000000000e+00
ITEM: ATOMS id type x y z
1 1 5.07629 6.03293 6.00243
5 2 4.73128 6.44098 4.76606
7 2 4.60686 4.85552 6.13737
2 2 7.17961 5.20623 5.49497
8 3 6.74776 5.97893 6.1311
4 2 7.22386 6.85925 5.90212
3 2 6.98484 5.73258 7.11387
6 2 4.78101 6.84571 6.88332
ITEM: TIMESTEP
5200
ITEM: NUMBER OF ATOMS
8
ITEM: BOX BOUNDS xy xz yz pp pp pp
0.0000000000000000e+00 1.2000000000000000e+01 0.0000000000000000e+00
0.0000000000000000e+00 1.2000000000000000e+01 0.0000000000000000e+00
0.0000000000000000e+00 1.2000000000000000e+01 0.0000000000000000e+00
ITEM: ATOMS id type x y z
2 2 7.13102 5.07081 5.5448
5 2 4.69282 6.25713 5.05443
4 2 7.20962 6.71265 5.58288
8 3 6.74943 5.93591 6.02548
6 2 4.85607 7.04384 6.81857
3 2 7.15162 5.85912 6.9592
1 1 5.04507 6.08616 6.12272
7 2 4.78002 5.02418 6.51736
ITEM: TIMESTEP
5300
ITEM: NUMBER OF ATOMS
8
ITEM: BOX BOUNDS xy xz yz pp pp pp
0.0000000000000000e+00 1.2000000000000000e+01 0.0000000000000000e+00
0.0000000000000000e+00 1.2000000000000000e+01 0.0000000000000000e+00
0.0000000000000000e+00 1.2000000000000000e+01 0.0000000000000000e+00
ITEM: ATOMS id type x y z
2 2 6.93151 5.06422 5.36319
5 2 4.53917 5.99482 5.05571
4 2 7.24814 6.62975 5.47535
8 3 6.74202 5.91386 5.939
7 2 4.83083 5.31592 7.20178
6 2 5.01314 7.28004 6.73392
3 2 7.25553 5.79923 6.7936
1 1 5.05495 6.10397 6.22129
ITEM: TIMESTEP
5400
ITEM: NUMBER OF ATOMS
8
ITEM: BOX BOUNDS xy xz yz pp pp pp
0.0000000000000000e+00 1.2000000000000000e+01 0.0000000000000000e+00
0.0000000000000000e+00 1.2000000000000000e+01 0.0000000000000000e+00
0.0000000000000000e+00 1.2000000000000000e+01 0.0000000000000000e+00
ITEM: ATOMS id type x y z
2 2 6.94603 4.85051 5.68153
5 2 4.40905 5.99675 5.33751
4 2 7.01326 6.34194 5.02775
8 3 6.71544 5.86403 5.84862
7 2 4.94097 5.32565 7.16478
6 2 5.07956 7.24411 6.80366
3 2 7.35117 6.1274 6.58513
1 1 5.09665 6.18687 6.34059
ITEM: TIMESTEP
5500
ITEM: NUMBER OF ATOMS
8
ITEM: BOX BOUNDS xy xz yz pp pp pp
0.0000000000000000e+00 1.2000000000000000e+01 0.0000000000000000e+00
0.0000000000000000e+00 1.2000000000000000e+01 0.0000000000000000e+00
0.0000000000000000e+00 1.2000000000000000e+01 0.0000000000000000e+00
ITEM: ATOMS id type x y z
2 2 6.73126 4.76162 5.66329
5 2 4.29292 5.81786 5.72354
4 2 6.89767 6.24161 4.84765
8 3 6.68902 5.83576 5.75329
7 2 5.13245 5.54835 7.49656
6 2 5.20806 7.50257 6.48075
3 2 7.46436 6.09491 6.38021
1 1 5.13213 6.21606 6.46494
ITEM: TIMESTEP
5600
ITEM: NUMBER OF ATOMS
8
ITEM: BOX BOUNDS xy xz yz pp pp pp
0.0000000000000000e+00 1.2000000000000000e+01 0.0000000000000000e+00